 argument  1 = Li2-10_ORBITALS-ccpVTZ-6_6825.nw
  NWChem w/ OpenMP: maximum threads =    1



============================== echo of input deck ==============================
title "Li2-REMOVE"
echo
start Li2-REMOVE

memory total 24 gb

geometry  units angstrom
symmetry c1
Li  0    0    0
Li  0    0    6.6825
end

basis spherical
   * library cc-pvtz
end

scf
thresh 1.0e-10
tol2e 1.0e-10
rhf
singlet
maxiter 200
end

tce
   ccsd
   maxiter 200
   thresh 1.e-6
   2eorb
   2emet 13
   tilesize 5
end

set tce:qducc T
set tce:nactv 7

task tce energy

================================================================================


                                         
                                         


              Northwest Computational Chemistry Package (NWChem) 6.8
              ------------------------------------------------------


                    Environmental Molecular Sciences Laboratory
                       Pacific Northwest National Laboratory
                                Richland, WA 99352

                              Copyright (c) 1994-2018
                       Pacific Northwest National Laboratory
                            Battelle Memorial Institute

             NWChem is an open-source computational chemistry package
                        distributed under the terms of the
                      Educational Community License (ECL) 2.0
             A copy of the license is included with this distribution
                              in the LICENSE.TXT file

                                  ACKNOWLEDGMENT
                                  --------------

            This software and its documentation were developed at the
            EMSL at Pacific Northwest National Laboratory, a multiprogram
            national laboratory, operated for the U.S. Department of Energy
            by Battelle under Contract Number DE-AC05-76RL01830. Support
            for this work was provided by the Department of Energy Office
            of Biological and Environmental Research, Office of Basic
            Energy Sciences, and the Office of Advanced Scientific Computing.


           Job information
           ---------------

    hostname        = WE35263ubuntu
    program         = /home/baum612/code/NWChem/nwchem/bin/LINUX64/nwchem
    date            = Tue Apr  9 00:23:44 2019

    compiled        = Thu_Apr_04_14:53:19_2019
    source          = /home/baum612/code/NWChem/nwchem
    nwchem branch   = Development
    nwchem revision = nwchem_on_git-845-ga8f432451
    ga revision     = 5.6.5
    use scalapack   = F
    input           = Li2-10_ORBITALS-ccpVTZ-6_6825.nw
    prefix          = Li2-REMOVE.
    data base       = ./Li2-REMOVE.db
    status          = startup
    nproc           =        1
    time left       =     -1s



           Memory information
           ------------------

    heap     =  805306368 doubles =   6144.0 Mbytes
    stack    =  805306365 doubles =   6144.0 Mbytes
    global   = 1610612736 doubles =  12288.0 Mbytes (distinct from heap & stack)
    total    = 3221225469 doubles =  24576.0 Mbytes
    verify   = yes
    hardfail = no 


           Directory information
           ---------------------

  0 permanent = .
  0 scratch   = .




                                NWChem Input Module
                                -------------------


                                    Li2-REMOVE
                                    ----------

 Scaling coordinates for geometry "geometry" by  1.889725989
 (inverse scale =  0.529177249)

 Turning off AUTOSYM since
 SYMMETRY directive was detected!


          ------
          auto-z
          ------
     1 autoz failed with cvr_scaling = 1.2 changing to 1.3
     2 autoz failed with cvr_scaling = 1.3 changing to 1.4
     3 autoz failed with cvr_scaling = 1.4 changing to 1.5
     4 autoz failed with cvr_scaling = 1.5 changing to 1.6
     5 autoz failed with cvr_scaling = 1.6 changing to 1.7

 AUTOZ failed to generate good internal coordinates.
 Cartesian coordinates will be used in optimizations.



                             Geometry "geometry" -> ""
                             -------------------------

 Output coordinates in angstroms (scale by  1.889725989 to convert to a.u.)

  No.       Tag          Charge          X              Y              Z
 ---- ---------------- ---------- -------------- -------------- --------------
    1 Li                   3.0000     0.00000000     0.00000000    -3.34125000
    2 Li                   3.0000     0.00000000     0.00000000     3.34125000

      Atomic Mass 
      ----------- 

      Li                 7.016000


 Effective nuclear repulsion energy (a.u.)       0.7126966316

            Nuclear Dipole moment (a.u.) 
            ----------------------------
        X                 Y               Z
 ---------------- ---------------- ----------------
     0.0000000000     0.0000000000     0.0000000000


            XYZ format geometry
            -------------------
     2
 geometry
 Li                    0.00000000     0.00000000    -3.34125000
 Li                    0.00000000     0.00000000     3.34125000



 Summary of "ao basis" -> "" (spherical)
 ------------------------------------------------------------------------------
       Tag                 Description            Shells   Functions and Types
 ---------------- ------------------------------  ------  ---------------------
 *                          cc-pvtz                   on all atoms 


                      Basis "ao basis" -> "ao basis" (spherical)
                      -----
  Li (Lithium)
  ------------
            Exponent  Coefficients 
       -------------- ---------------------------------------------------------
  1 S  5.98800000E+03  0.000133
  1 S  8.98900000E+02  0.001025
  1 S  2.05900000E+02  0.005272
  1 S  5.92400000E+01  0.020929
  1 S  1.98700000E+01  0.066340
  1 S  7.40600000E+00  0.165775
  1 S  2.93000000E+00  0.315038
  1 S  1.18900000E+00  0.393523
  1 S  4.79800000E-01  0.190870

  2 S  5.98800000E+03 -0.000021
  2 S  8.98900000E+02 -0.000161
  2 S  2.05900000E+02 -0.000820
  2 S  5.92400000E+01 -0.003326
  2 S  1.98700000E+01 -0.010519
  2 S  7.40600000E+00 -0.028097
  2 S  2.93000000E+00 -0.055936
  2 S  1.18900000E+00 -0.099237
  2 S  4.79800000E-01 -0.112189

  3 S  7.50900000E-02  1.000000

  4 S  2.83200000E-02  1.000000

  5 P  3.26600000E+00  0.008630
  5 P  6.51100000E-01  0.047538
  5 P  1.69600000E-01  0.209772

  6 P  5.57800000E-02  1.000000

  7 P  2.05000000E-02  1.000000

  8 D  1.87400000E-01  1.000000

  9 D  8.01000000E-02  1.000000

 10 F  1.82900000E-01  1.000000



 Summary of "ao basis" -> "ao basis" (spherical)
 ------------------------------------------------------------------------------
       Tag                 Description            Shells   Functions and Types
 ---------------- ------------------------------  ------  ---------------------
 Li                         cc-pvtz                 10       30   4s3p2d1f


                                 NWChem SCF Module
                                 -----------------


                                    Li2-REMOVE



  ao basis        = "ao basis"
  functions       =    60
  atoms           =     2
  closed shells   =     3
  open shells     =     0
  charge          =   0.00
  wavefunction    = RHF 
  input vectors   = atomic
  output vectors  = ./Li2-REMOVE.movecs
  use symmetry    = F
  symmetry adapt  = F


 Summary of "ao basis" -> "ao basis" (spherical)
 ------------------------------------------------------------------------------
       Tag                 Description            Shells   Functions and Types
 ---------------- ------------------------------  ------  ---------------------
 Li                         cc-pvtz                 10       30   4s3p2d1f



 Forming initial guess at       0.1s


      Superposition of Atomic Density Guess
      -------------------------------------

 Sum of atomic energies:         -14.86535760

      Non-variational initial energy
      ------------------------------

 Total energy =     -14.748592
 1-e energy   =     -20.852588
 2-e energy   =       5.391300
 HOMO         =      -0.088294
 LUMO         =      -0.075602


 Starting SCF solution at       0.1s



 ----------------------------------------------
         Quadratically convergent ROHF

 Convergence threshold     :          1.000E-10
 Maximum no. of iterations :          200
 Final Fock-matrix accuracy:          1.000E-10
 ----------------------------------------------


 Integral file          = ./Li2-REMOVE.aoints.0
 Record size in doubles =    65536    No. of integs per rec  =    43688
 Max. records in memory =       54    Max. records in file   =  1546361
 No. of bits per label  =        8    No. of bits per value  =       64


 #quartets = 2.070D+04 #integrals = 3.395D+05 #direct =  0.0% #cached =100.0%


              iter       energy          gnorm     gmax       time
             ----- ------------------- --------- --------- --------
                 1      -14.8036969921  3.99D-02  3.01D-02      0.3
                 2      -14.8053602063  2.34D-03  1.60D-03      0.3
                 3      -14.8053630998  3.33D-06  2.07D-06      0.4
                 4      -14.8053630998  1.65D-11  7.87D-12      0.4


       Final RHF  results 
       ------------------ 

         Total SCF energy =    -14.805363099760
      One-electron energy =    -20.725051345453
      Two-electron energy =      5.206991614044
 Nuclear repulsion energy =      0.712696631649

        Time for solution =      0.3s


             Final eigenvalues
             -----------------

              1      
    1   -2.5119
    2   -2.5119
    3   -0.1318
    4   -0.0425
    5    0.0255
    6    0.0255
    7    0.0255
    8    0.0368
    9    0.0368
   10    0.0459
   11    0.1166
   12    0.1195
   13    0.1195

                       ROHF Final Molecular Orbital Analysis
                       -------------------------------------

 Vector    2  Occ=2.000000D+00  E=-2.511875D+00
              MO Center=  3.6D-18, -2.4D-17,  1.8D-04, r^2= 1.1D+01
   Bfn.  Coefficient  Atom+Function         Bfn.  Coefficient  Atom+Function  
  ----- ------------  ---------------      ----- ------------  ---------------
     1      0.706689  1 Li s                 31      0.706728  2 Li s          

 Vector    3  Occ=2.000000D+00  E=-1.317835D-01
              MO Center=  8.4D-15,  1.3D-14,  3.1D-11, r^2= 1.5D+01
   Bfn.  Coefficient  Atom+Function         Bfn.  Coefficient  Atom+Function  
  ----- ------------  ---------------      ----- ------------  ---------------
     4      0.510705  1 Li s                 34      0.510705  2 Li s          
     3      0.203450  1 Li s                 33      0.203450  2 Li s          

 Vector    4  Occ=0.000000D+00  E=-4.250611D-02
              MO Center= -7.2D-16, -1.2D-15, -5.9D-11, r^2= 2.1D+01
   Bfn.  Coefficient  Atom+Function         Bfn.  Coefficient  Atom+Function  
  ----- ------------  ---------------      ----- ------------  ---------------
     4      0.525392  1 Li s                 34     -0.525392  2 Li s          
     3      0.216535  1 Li s                 33     -0.216535  2 Li s          
     2      0.150823  1 Li s                 32     -0.150823  2 Li s          

 Vector    5  Occ=0.000000D+00  E= 2.547372D-02
              MO Center=  1.7D-13, -4.0D-14, -2.2D-10, r^2= 2.8D+01
   Bfn.  Coefficient  Atom+Function         Bfn.  Coefficient  Atom+Function  
  ----- ------------  ---------------      ----- ------------  ---------------
    13      0.540942  1 Li pz                43     -0.540942  2 Li pz         
     4     -0.258736  1 Li s                 34     -0.258736  2 Li s          

 Vector    6  Occ=0.000000D+00  E= 2.554654D-02
              MO Center= -5.6D-15, -2.0D-14, -4.5D-10, r^2= 2.6D+01
   Bfn.  Coefficient  Atom+Function         Bfn.  Coefficient  Atom+Function  
  ----- ------------  ---------------      ----- ------------  ---------------
    12      0.601449  1 Li py                42      0.601449  2 Li py         

 Vector    7  Occ=0.000000D+00  E= 2.554654D-02
              MO Center= -1.8D-13,  4.0D-14, -4.5D-10, r^2= 2.6D+01
   Bfn.  Coefficient  Atom+Function         Bfn.  Coefficient  Atom+Function  
  ----- ------------  ---------------      ----- ------------  ---------------
    11      0.601449  1 Li px                41      0.601449  2 Li px         

 Vector    8  Occ=0.000000D+00  E= 3.677140D-02
              MO Center= -4.0D-15, -5.2D-15,  4.5D-10, r^2= 3.0D+01
   Bfn.  Coefficient  Atom+Function         Bfn.  Coefficient  Atom+Function  
  ----- ------------  ---------------      ----- ------------  ---------------
    12      0.583048  1 Li py                42     -0.583048  2 Li py         
    11      0.485282  1 Li px                41     -0.485282  2 Li px         

 Vector    9  Occ=0.000000D+00  E= 3.677140D-02
              MO Center= -2.2D-15, -1.2D-15,  4.5D-10, r^2= 3.0D+01
   Bfn.  Coefficient  Atom+Function         Bfn.  Coefficient  Atom+Function  
  ----- ------------  ---------------      ----- ------------  ---------------
    11      0.583048  1 Li px                41     -0.583048  2 Li px         
    12     -0.485282  1 Li py                42      0.485282  2 Li py         

 Vector   10  Occ=0.000000D+00  E= 4.593850D-02
              MO Center=  6.8D-16, -1.3D-15,  2.6D-10, r^2= 4.1D+01
   Bfn.  Coefficient  Atom+Function         Bfn.  Coefficient  Atom+Function  
  ----- ------------  ---------------      ----- ------------  ---------------
    13      1.116075  1 Li pz                43      1.116075  2 Li pz         
     4      0.343331  1 Li s                 34     -0.343331  2 Li s          

 Vector   11  Occ=0.000000D+00  E= 1.166329D-01
              MO Center= -4.6D-15, -4.3D-15, -2.0D-09, r^2= 2.9D+01
   Bfn.  Coefficient  Atom+Function         Bfn.  Coefficient  Atom+Function  
  ----- ------------  ---------------      ----- ------------  ---------------
    10      0.916441  1 Li pz                40      0.916441  2 Li pz         
    13     -0.881536  1 Li pz                43     -0.881536  2 Li pz         
     3     -0.227937  1 Li s                 33      0.227937  2 Li s          

 Vector   12  Occ=0.000000D+00  E= 1.194946D-01
              MO Center= -2.0D-14, -3.6D-15, -1.7D-09, r^2= 2.3D+01
   Bfn.  Coefficient  Atom+Function         Bfn.  Coefficient  Atom+Function  
  ----- ------------  ---------------      ----- ------------  ---------------
     8      0.924329  1 Li px                38      0.924329  2 Li px         
    11     -0.702429  1 Li px                41     -0.702429  2 Li px         
     9      0.169438  1 Li py                39      0.169438  2 Li py         

 Vector   13  Occ=0.000000D+00  E= 1.194946D-01
              MO Center=  2.8D-15, -1.8D-14, -1.7D-09, r^2= 2.3D+01
   Bfn.  Coefficient  Atom+Function         Bfn.  Coefficient  Atom+Function  
  ----- ------------  ---------------      ----- ------------  ---------------
     9      0.924329  1 Li py                39      0.924329  2 Li py         
    12     -0.702429  1 Li py                42     -0.702429  2 Li py         
     8     -0.169438  1 Li px                38     -0.169438  2 Li px         

 Vector   14  Occ=0.000000D+00  E= 1.229019D-01
              MO Center=  1.1D-14,  1.3D-14,  1.8D-09, r^2= 3.3D+01
   Bfn.  Coefficient  Atom+Function         Bfn.  Coefficient  Atom+Function  
  ----- ------------  ---------------      ----- ------------  ---------------
    10      0.873561  1 Li pz                40     -0.873561  2 Li pz         
     3     -0.784180  1 Li s                 33     -0.784180  2 Li s          
     4      0.757258  1 Li s                 34      0.757258  2 Li s          
    13     -0.736901  1 Li pz                43      0.736901  2 Li pz         
     2     -0.195743  1 Li s                 32     -0.195743  2 Li s          

 Vector   15  Occ=0.000000D+00  E= 1.239031D-01
              MO Center=  6.6D-16,  2.8D-15,  1.7D-09, r^2= 2.6D+01
   Bfn.  Coefficient  Atom+Function         Bfn.  Coefficient  Atom+Function  
  ----- ------------  ---------------      ----- ------------  ---------------
     9      0.837801  1 Li py                39     -0.837801  2 Li py         
    12     -0.777825  1 Li py                42      0.777825  2 Li py         
     8      0.526441  1 Li px                38     -0.526441  2 Li px         
    11     -0.488754  1 Li px                41      0.488754  2 Li px         

 Vector   16  Occ=0.000000D+00  E= 1.239031D-01
              MO Center=  3.3D-15, -4.1D-16,  1.7D-09, r^2= 2.6D+01
   Bfn.  Coefficient  Atom+Function         Bfn.  Coefficient  Atom+Function  
  ----- ------------  ---------------      ----- ------------  ---------------
     8      0.837801  1 Li px                38     -0.837801  2 Li px         
    11     -0.777825  1 Li px                41      0.777825  2 Li px         
     9     -0.526441  1 Li py                39      0.526441  2 Li py         
    12      0.488754  1 Li py                42     -0.488754  2 Li py         

 Vector   17  Occ=0.000000D+00  E= 1.471846D-01
              MO Center=  4.8D-15,  9.1D-15, -1.6D-09, r^2= 1.5D+01
   Bfn.  Coefficient  Atom+Function         Bfn.  Coefficient  Atom+Function  
  ----- ------------  ---------------      ----- ------------  ---------------
     3      1.167376  1 Li s                 33      1.167376  2 Li s          
     4     -0.884596  1 Li s                 34     -0.884596  2 Li s          
    10      0.573087  1 Li pz                40     -0.573087  2 Li pz         
    13     -0.429122  1 Li pz                43      0.429122  2 Li pz         
     2      0.295254  1 Li s                 32      0.295254  2 Li s          

 Vector   18  Occ=0.000000D+00  E= 1.702387D-01
              MO Center=  2.0D-15,  3.6D-15,  1.6D-09, r^2= 1.9D+01
   Bfn.  Coefficient  Atom+Function         Bfn.  Coefficient  Atom+Function  
  ----- ------------  ---------------      ----- ------------  ---------------
     4     -1.578742  1 Li s                 34      1.578742  2 Li s          
     3      1.513373  1 Li s                 33     -1.513373  2 Li s          
    13     -0.699389  1 Li pz                43     -0.699389  2 Li pz         
     2      0.340057  1 Li s                 10      0.339312  1 Li pz         
    32     -0.340057  2 Li s                 40      0.339312  2 Li pz         

 Vector   19  Occ=0.000000D+00  E= 2.065071D-01
              MO Center=  2.8D-16,  2.6D-16,  2.6D-11, r^2= 1.8D+01
   Bfn.  Coefficient  Atom+Function         Bfn.  Coefficient  Atom+Function  
  ----- ------------  ---------------      ----- ------------  ---------------
    21      0.785669  1 Li d  0              51      0.785669  2 Li d  0       
    16     -0.159164  1 Li d  0              46     -0.159164  2 Li d  0       

 Vector   20  Occ=0.000000D+00  E= 2.158438D-01
              MO Center=  1.9D-16,  5.2D-16, -3.5D-10, r^2= 1.8D+01
   Bfn.  Coefficient  Atom+Function         Bfn.  Coefficient  Atom+Function  
  ----- ------------  ---------------      ----- ------------  ---------------
    20      0.732327  1 Li d -1              50     -0.732327  2 Li d -1       
    22     -0.346541  1 Li d  1              52      0.346541  2 Li d  1       

 Vector   21  Occ=0.000000D+00  E= 2.158438D-01
              MO Center=  4.8D-16, -8.4D-16, -3.5D-10, r^2= 1.8D+01
   Bfn.  Coefficient  Atom+Function         Bfn.  Coefficient  Atom+Function  
  ----- ------------  ---------------      ----- ------------  ---------------
    22      0.732327  1 Li d  1              52     -0.732327  2 Li d  1       
    20      0.346541  1 Li d -1              50     -0.346541  2 Li d -1       

 Vector   22  Occ=0.000000D+00  E= 2.213678D-01
              MO Center=  1.7D-15,  6.9D-16, -3.6D-09, r^2= 1.8D+01
   Bfn.  Coefficient  Atom+Function         Bfn.  Coefficient  Atom+Function  
  ----- ------------  ---------------      ----- ------------  ---------------
    23      0.806939  1 Li d  2              53      0.806939  2 Li d  2       
    18     -0.154656  1 Li d  2              48     -0.154656  2 Li d  2       

 Vector   23  Occ=0.000000D+00  E= 2.213678D-01
              MO Center=  9.5D-16,  1.7D-15, -3.6D-09, r^2= 1.8D+01
   Bfn.  Coefficient  Atom+Function         Bfn.  Coefficient  Atom+Function  
  ----- ------------  ---------------      ----- ------------  ---------------
    19      0.806939  1 Li d -2              49      0.806939  2 Li d -2       
    14     -0.154656  1 Li d -2              44     -0.154656  2 Li d -2       

 Vector   24  Occ=0.000000D+00  E= 2.235987D-01
              MO Center=  9.9D-16,  3.5D-16,  3.6D-09, r^2= 1.8D+01
   Bfn.  Coefficient  Atom+Function         Bfn.  Coefficient  Atom+Function  
  ----- ------------  ---------------      ----- ------------  ---------------
    23      0.711609  1 Li d  2              53     -0.711609  2 Li d  2       
    19     -0.392952  1 Li d -2              49      0.392952  2 Li d -2       

 Vector   25  Occ=0.000000D+00  E= 2.235987D-01
              MO Center=  1.7D-15, -4.3D-16,  3.6D-09, r^2= 1.8D+01
   Bfn.  Coefficient  Atom+Function         Bfn.  Coefficient  Atom+Function  
  ----- ------------  ---------------      ----- ------------  ---------------
    19      0.711609  1 Li d -2              49     -0.711609  2 Li d -2       
    23      0.392952  1 Li d  2              53     -0.392952  2 Li d  2       

 Vector   26  Occ=0.000000D+00  E= 2.367597D-01
              MO Center=  2.3D-15,  1.9D-15,  3.5D-10, r^2= 1.8D+01
   Bfn.  Coefficient  Atom+Function         Bfn.  Coefficient  Atom+Function  
  ----- ------------  ---------------      ----- ------------  ---------------
    20      0.586024  1 Li d -1              50      0.586024  2 Li d -1       
    22     -0.568389  1 Li d  1              52     -0.568389  2 Li d  1       

 Vector   27  Occ=0.000000D+00  E= 2.367597D-01
              MO Center= -8.7D-16, -4.7D-16,  3.5D-10, r^2= 1.8D+01
   Bfn.  Coefficient  Atom+Function         Bfn.  Coefficient  Atom+Function  
  ----- ------------  ---------------      ----- ------------  ---------------
    22      0.586024  1 Li d  1              52      0.586024  2 Li d  1       
    20      0.568389  1 Li d -1              50      0.568389  2 Li d -1       

 Vector   28  Occ=0.000000D+00  E= 2.780213D-01
              MO Center= -1.3D-16,  3.2D-16,  9.9D-11, r^2= 2.0D+01
   Bfn.  Coefficient  Atom+Function         Bfn.  Coefficient  Atom+Function  
  ----- ------------  ---------------      ----- ------------  ---------------
     4      0.849461  1 Li s                 34     -0.849461  2 Li s          
    21      0.831006  1 Li d  0              51     -0.831006  2 Li d  0       
     3     -0.669000  1 Li s                 33      0.669000  2 Li s          
    13      0.592203  1 Li pz                43      0.592203  2 Li pz         
    10     -0.209259  1 Li pz                40     -0.209259  2 Li pz         

 Vector   29  Occ=0.000000D+00  E= 4.404095D-01
              MO Center= -9.9D-15,  2.0D-14, -7.6D-10, r^2= 1.8D+01
   Bfn.  Coefficient  Atom+Function         Bfn.  Coefficient  Atom+Function  
  ----- ------------  ---------------      ----- ------------  ---------------
    10      1.119494  1 Li pz                40     -1.119494  2 Li pz         
     7     -0.995409  1 Li pz                37      0.995409  2 Li pz         
    13     -0.498710  1 Li pz                43      0.498710  2 Li pz         

 Vector   30  Occ=0.000000D+00  E= 4.405279D-01
              MO Center=  1.2D-15, -2.1D-14, -2.4D-09, r^2= 1.6D+01
   Bfn.  Coefficient  Atom+Function         Bfn.  Coefficient  Atom+Function  
  ----- ------------  ---------------      ----- ------------  ---------------
     9     -1.041603  1 Li py                39     -1.041603  2 Li py         
     6      0.983944  1 Li py                36      0.983944  2 Li py         
    12      0.418257  1 Li py                42      0.418257  2 Li py         

 Vector   31  Occ=0.000000D+00  E= 4.405279D-01
              MO Center=  8.1D-15,  7.8D-16, -2.4D-09, r^2= 1.6D+01
   Bfn.  Coefficient  Atom+Function         Bfn.  Coefficient  Atom+Function  
  ----- ------------  ---------------      ----- ------------  ---------------
     8     -1.041603  1 Li px                38     -1.041603  2 Li px         
     5      0.983944  1 Li px                35      0.983944  2 Li px         
    11      0.418257  1 Li px                41      0.418257  2 Li px         

 Vector   32  Occ=0.000000D+00  E= 4.451830D-01
              MO Center= -2.1D-16,  1.5D-17,  2.4D-09, r^2= 1.7D+01
   Bfn.  Coefficient  Atom+Function         Bfn.  Coefficient  Atom+Function  
  ----- ------------  ---------------      ----- ------------  ---------------
     8     -0.852955  1 Li px                38      0.852955  2 Li px         
     5      0.780226  1 Li px                35     -0.780226  2 Li px         
     9     -0.674654  1 Li py                39      0.674654  2 Li py         
     6      0.617129  1 Li py                36     -0.617129  2 Li py         
    11      0.408736  1 Li px                41     -0.408736  2 Li px         

 Vector   33  Occ=0.000000D+00  E= 4.451830D-01
              MO Center= -2.9D-15,  1.1D-16,  2.4D-09, r^2= 1.7D+01
   Bfn.  Coefficient  Atom+Function         Bfn.  Coefficient  Atom+Function  
  ----- ------------  ---------------      ----- ------------  ---------------
     9     -0.852955  1 Li py                39      0.852955  2 Li py         
     6      0.780226  1 Li py                36     -0.780226  2 Li py         
     8      0.674654  1 Li px                38     -0.674654  2 Li px         
     5     -0.617129  1 Li px                35      0.617129  2 Li px         
    12      0.408736  1 Li py                42     -0.408736  2 Li py         

 Vector   34  Occ=0.000000D+00  E= 4.550773D-01
              MO Center=  6.7D-16, -1.3D-15,  7.6D-10, r^2= 1.7D+01
   Bfn.  Coefficient  Atom+Function         Bfn.  Coefficient  Atom+Function  
  ----- ------------  ---------------      ----- ------------  ---------------
    10     -1.064377  1 Li pz                40     -1.064377  2 Li pz         
     7      0.988416  1 Li pz                37      0.988416  2 Li pz         
    13      0.526434  1 Li pz                43      0.526434  2 Li pz         

 Vector   35  Occ=0.000000D+00  E= 6.987720D-01
              MO Center= -1.5D-15, -1.7D-15, -1.6D-10, r^2= 1.6D+01
   Bfn.  Coefficient  Atom+Function         Bfn.  Coefficient  Atom+Function  
  ----- ------------  ---------------      ----- ------------  ---------------
    16      0.955223  1 Li d  0              46      0.955223  2 Li d  0       
    21     -0.568797  1 Li d  0              51     -0.568797  2 Li d  0       
    27     -0.222817  1 Li f  0              57      0.222817  2 Li f  0       


 center of mass
 --------------
 x =   0.00000000 y =   0.00000000 z =   0.00000000

 moments of inertia (a.u.)
 ------------------
         559.416396115180           0.000000000000           0.000000000000
           0.000000000000         559.416396115180           0.000000000000
           0.000000000000           0.000000000000           0.000000000000

  Mulliken analysis of the total density
  --------------------------------------

    Atom       Charge   Shell Charges
 -----------   ------   -------------------------------------------------------
    1 Li   3     3.00   2.00 -0.01  0.25  0.74  0.00  0.00  0.02 -0.00  0.00  0.00
    2 Li   3     3.00   2.00 -0.01  0.25  0.74  0.00  0.00  0.02 -0.00  0.00  0.00

       Multipole analysis of the density wrt the origin
       ------------------------------------------------

     L   x y z        total         open         nuclear
     -   - - -        -----         ----         -------
     0   0 0 0     -0.000000      0.000000      6.000000

     1   1 0 0     -0.000000      0.000000      0.000000
     1   0 1 0     -0.000000      0.000000      0.000000
     1   0 0 1     -0.000000      0.000000      0.000000

     2   2 0 0    -15.403437      0.000000      0.000000
     2   1 1 0      0.000000      0.000000      0.000000
     2   1 0 1      0.000000      0.000000      0.000000
     2   0 2 0    -15.403437      0.000000      0.000000
     2   0 1 1     -0.000000      0.000000      0.000000
     2   0 0 2      2.972591      0.000000    239.203134


 Parallel integral file used       8 records with       0 large values

                   NWChem Extensible Many-Electron Theory Module
                   ---------------------------------------------

              ======================================================
                   This portion of the program was automatically
                  generated by a Tensor Contraction Engine (TCE).
                  The development of this portion of the program
                 and TCE was supported by US Department of Energy,
                Office of Science, Office of Basic Energy Science.
                      TCE is a product of Battelle and PNNL.
              Please cite: S.Hirata, J.Phys.Chem.A 107, 9887 (2003).
              ======================================================

                                    Li2-REMOVE


            General Information
            -------------------
      Number of processors :     1
         Wavefunction type : Restricted Hartree-Fock
          No. of electrons :     6
           Alpha electrons :     3
            Beta electrons :     3
           No. of orbitals :   120
            Alpha orbitals :    60
             Beta orbitals :    60
        Alpha frozen cores :     0
         Beta frozen cores :     0
     Alpha frozen virtuals :     0
      Beta frozen virtuals :     0
         Spin multiplicity : singlet 
    Number of AO functions :    60
       Number of AO shells :    20
        Use of symmetry is : off
      Symmetry adaption is : off
         Schwarz screening : 0.10D-09

          Correlation Information
          -----------------------
          Calculation type : Coupled-cluster singles & doubles                           
   Perturbative correction : none                                                        
            Max iterations :      200
        Residual threshold : 0.10D-05
     T(0) DIIS level shift : 0.00D+00
     L(0) DIIS level shift : 0.00D+00
     T(1) DIIS level shift : 0.00D+00
     L(1) DIIS level shift : 0.00D+00
     T(R) DIIS level shift : 0.00D+00
     T(I) DIIS level shift : 0.00D+00
   CC-T/L Amplitude update :  5-th order DIIS
                I/O scheme : Global Array Library
        L-threshold :  0.10D-05
        EOM-threshold :  0.10D-05
 no EOMCCSD initial starts read in
 TCE RESTART OPTIONS
 READ_INT:   F
 WRITE_INT:  F
 READ_TA:    F
 WRITE_TA:   F
 READ_XA:    F
 WRITE_XA:   F
 READ_IN3:   F
 WRITE_IN3:  F
 SLICE:      F
 D4D5:       F
 quantumc:   F
 qrotation:  F
 qducc:      T
 nacto:                         0
 nrotv:                         0
 nrot:                          0

            Memory Information
            ------------------
          Available GA space size is    1610609136 doubles
          Available MA space size is    1610610012 doubles

 Maximum block size supplied by input
 Maximum block size         5 doubles

 tile_dim =      5

 Block   Spin    Irrep     Size     Offset   Alpha
 -------------------------------------------------
   1    alpha     a      3 doubles       0       1
   2    beta      a      3 doubles       3       1
   3    alpha     a      4 doubles       6       3
   4    alpha     a      5 doubles      10       4
   5    alpha     a      5 doubles      15       5
   6    alpha     a      5 doubles      20       6
   7    alpha     a      4 doubles      25       7
   8    alpha     a      5 doubles      29       8
   9    alpha     a      5 doubles      34       9
  10    alpha     a      5 doubles      39      10
  11    alpha     a      4 doubles      44      11
  12    alpha     a      5 doubles      48      12
  13    alpha     a      5 doubles      53      13
  14    alpha     a      5 doubles      58      14
  15    beta      a      4 doubles      63       3
  16    beta      a      5 doubles      67       4
  17    beta      a      5 doubles      72       5
  18    beta      a      5 doubles      77       6
  19    beta      a      4 doubles      82       7
  20    beta      a      5 doubles      86       8
  21    beta      a      5 doubles      91       9
  22    beta      a      5 doubles      96      10
  23    beta      a      4 doubles     101      11
  24    beta      a      5 doubles     105      12
  25    beta      a      5 doubles     110      13
  26    beta      a      5 doubles     115      14

 Global array virtual files algorithm will be used

 Parallel file system coherency ......... OK

 Integral file          = ./Li2-REMOVE.aoints.0
 Record size in doubles =    65536    No. of integs per rec  =    43688
 Max. records in memory =       54    Max. records in file   =  1546361
 No. of bits per label  =        8    No. of bits per value  =       64


 #quartets = 2.070D+04 #integrals = 3.395D+05 #direct =  0.0% #cached =100.0%


 Fock matrix recomputed
 1-e file size   =             3600
 1-e file name   = ./Li2-REMOVE.f1
 Cpu & wall time / sec            0.2            0.2
 4-electron integrals stored in orbital form

 v2    file size   =          1905240
 4-index algorithm nr.  13 is used
 imaxsize =       30
 imaxsize ichop =        0
 Cpu & wall time / sec            4.5            4.6
 T1-number-of-tasks                   12

 t1 file size   =              171
 t1 file name   = ./Li2-REMOVE.t1
 t1 file handle =       -998
 T2-number-of-boxes                  222

 t2 file size   =            45090
 t2 file name   = ./Li2-REMOVE.t2
 t2 file handle =       -996

 CCSD iterations
 -----------------------------------------------------------------
 Iter          Residuum       Correlation     Cpu    Wall    V2*C2
 -----------------------------------------------------------------
    1   0.0971250692534  -0.0565918175894     1.8     2.0     0.5
    2   0.0325568439014  -0.0689342994814     1.9     1.9     0.6
    3   0.0197120574389  -0.0770376232872     1.8     2.0     0.5
    4   0.0126379914439  -0.0804737526028     1.8     2.0     0.5
    5   0.0075969436378  -0.0830161614841     1.8     2.0     0.5
 MICROCYCLE DIIS UPDATE:                    5                    5
    6   0.0014907481560  -0.0860993232182     1.8     1.9     0.5
    7   0.0008049008657  -0.0860586336345     1.8     2.0     0.5
    8   0.0003381137512  -0.0860927263823     1.8     1.9     0.5
    9   0.0002578721787  -0.0860730082981     1.8     2.0     0.6
   10   0.0001209745199  -0.0860966522666     1.8     2.0     0.5
 MICROCYCLE DIIS UPDATE:                   10                    5
   11   0.0000502778289  -0.0861037480690     1.8     2.0     0.6
   12   0.0000298210586  -0.0860998758752     1.8     2.0     0.6
   13   0.0000173738882  -0.0861031434005     1.8     2.0     0.5
   14   0.0000128527897  -0.0861022723478     1.8     1.9     0.6
   15   0.0000078231139  -0.0861033955560     1.9     2.0     0.6
 MICROCYCLE DIIS UPDATE:                   15                    5
   16   0.0000018135436  -0.0861039444406     1.9     2.0     0.6
   17   0.0000011277294  -0.0861038617469     1.9     2.0     0.5
   18   0.0000005158639  -0.0861039439876     1.8     2.0     0.5
 -----------------------------------------------------------------
 Iterations converged
 CCSD correlation energy / hartree =        -0.086103943987592
 CCSD total energy / hartree       =       -14.891467043747554

 Singles contributions
     5a   (alpha) ---     3a   (alpha)       -0.1051937115
    17a   (alpha) ---     3a   (alpha)        0.1071270713

 Doubles contributions
     4a   (alpha)     4a   (beta ) ---     3a   (alpha)     3a   (beta )       -0.8289349875
     4a   (alpha)    10a   (beta ) ---     3a   (alpha)     3a   (beta )       -0.1620342088
     4a   (alpha)    18a   (beta ) ---     3a   (alpha)     3a   (beta )       -0.1027082108
    10a   (alpha)     4a   (beta ) ---     3a   (alpha)     3a   (beta )       -0.1620342088
    18a   (alpha)     4a   (beta ) ---     3a   (alpha)     3a   (beta )       -0.1027082108
 Ground state specification:
 exp(T)|Ref>~(1+T)|Ref>
 ------- a(p)+/a(q) strings ----------

 singles norm

 doubles norm

 Reference string
  0.74415284541974380      :(1a)+ (2a)+ (3a)+ (1b)+ (2b)+ (3b)+ |0>

 Singles strings
  -7.8280199703118461E-002 :(5a)+ (3a)  (1a)+ (2a)+ (3a)+ (1b)+ (2b)+ (3b)+ |0>
  -7.8280199703118461E-002 :(5b)+ (3b)  (1a)+ (2a)+ (3a)+ (1b)+ (2b)+ (3b)+ |0>
   7.9718914898990162E-002 :(17a)+(3a)  (1a)+ (2a)+ (3a)+ (1b)+ (2b)+ (3b)+ |0>
   7.9718914898990162E-002 :(17b)+(3b)  (1a)+ (2a)+ (3a)+ (1b)+ (2b)+ (3b)+ |0>

 Doubles strings
 -0.61685432962345721      :(4a)+ (4b)+ (3b)  (3a)  (1a)+ (2a)+ (3a)+ (1b)+ (2b)+ (3b)+ |0>
 -0.12057821754375464      :(4a)+ (10b)+(3b)  (3a)  (1a)+ (2a)+ (3a)+ (1b)+ (2b)+ (3b)+ |0>
  -7.6430607317915539E-002 :(4a)+ (18b)+(3b)  (3a)  (1a)+ (2a)+ (3a)+ (1b)+ (2b)+ (3b)+ |0>
 -0.12057821754375460      :(10a)+(4b)+ (3b)  (3a)  (1a)+ (2a)+ (3a)+ (1b)+ (2b)+ (3b)+ |0>
  -7.6430607317915539E-002 :(18a)+(4b)+ (3b)  (3a)  (1a)+ (2a)+ (3a)+ (1b)+ (2b)+ (3b)+ |0>
 -------------------------------------
 enrep_tce =   0.71269663164942532     
  EHF(total)         =       -14.80536310
  Shift (HFtot-HFA)  =         0.00000000
 ALL OCCUPIED ORBITALS ARE ACTIVE IN DUCC --> NO SHIFT
 Number of active orbitals                   10
 Number of active alpha electrons                    3
 Number of active beta electrons                    3
  nos                     6
  nvs                   114
 noas                     3
 nobs                     3
 nvas                    57
 nvbs                    57
 nactv                     7
 From DUCC CCSD corr. ene.  -8.6103943987110659E-002
 From DUCC CCSD corr. ene.-e-part   4.1786048222720140E-002
 begin_one_electron_integrals
    1    1        -4.6793128431
    1    2         0.0000000003
    1    3         0.0000033003
    1    4         0.1037789131
    1    5        -0.0000003818
    1   10         0.0432275603
    2    1         0.0000000003
    2    2        -4.6793005384
    2    3         0.1197644308
    2    4        -0.0000028598
    2    5        -0.0138547585
    2   10        -0.0000011912
    3    1         0.0000033003
    3    2         0.1197644308
    3    3        -1.0622276271
    3    5        -0.0104425825
    4    1         0.1037789131
    4    2        -0.0000028598
    4    4        -0.9707598261
    4   10        -0.1471565128
    5    1        -0.0000003818
    5    2        -0.0138547585
    5    3        -0.0104425825
    5    5        -0.7282329191
    6    6        -0.6756720887
    7    7        -0.6756720887
    8    8        -0.6574678843
    9    9        -0.6574678843
   10    1         0.0432275603
   10    2        -0.0000011912
   10    4        -0.1471565128
   10   10        -0.6345330843
 end_one_electron_integrals
 begin_two_electron_integrals
    1    1    1    1        0.8580858131
    2    1    1    1        0.0000429276
    2    2    1    1        0.8580769352
    2    1    2    1        0.7788958944
    2    2    2    1       -0.0000429279
    2    2    2    2        0.8580738410
    3    1    1    1       -0.0000048650
    3    2    1    1       -0.0588164616
    3    3    1    1        0.1986794581
    3    1    2    1       -0.0588646878
    3    1    2    2        0.0000016234
    3    2    2    1        0.0000016221
    3    2    2    2       -0.0588169789
    3    3    2    2        0.1986800250
    3    1    3    1        0.0053606995
    3    2    3    2        0.0053615803
    3    3    3    1       -0.0000000392
    3    3    3    2       -0.0014235895
    3    3    3    3        0.1583020487
    4    1    1    1       -0.0527403214
    4    2    1    1       -0.0000014498
    4    3    1    1        0.0000057447
    4    4    1    1        0.1800967775
    4    1    2    1       -0.0000014516
    4    1    2    2       -0.0527395181
    4    2    2    1       -0.0526760070
    4    2    2    2        0.0000043565
    4    3    2    1        0.1042321289
    4    3    2    2       -0.0000057447
    4    4    2    2        0.1800963308
    4    1    3    1        0.0000003195
    4    1    3    2        0.0057975028
    4    1    3    3       -0.0015863930
    4    2    3    1        0.0057976177
    4    2    3    2       -0.0000003195
    4    2    3    3        0.0000000437
    4    3    3    1       -0.0013615219
    4    3    3    2        0.0000000375
    4    4    3    1       -0.0000000271
    4    4    3    2       -0.0009835292
    4    4    3    3        0.1439191786
    4    1    4    1        0.0066715873
    4    2    4    2        0.0066728557
    4    3    4    1       -0.0000000521
    4    3    4    2       -0.0018896937
    4    3    4    3        0.0654835900
    4    4    4    1       -0.0008369517
    4    4    4    2        0.0000000231
    4    4    4    4        0.1394282957
    5    1    1    1        0.0000004995
    5    2    1    1        0.0062690016
    5    3    1    1        0.0002490283
    5    4    1    1       -0.0000017250
    5    5    1    1        0.1326533652
    5    1    2    1        0.0059292593
    5    1    2    2       -0.0000001540
    5    2    2    1       -0.0000001634
    5    2    2    2        0.0062692553
    5    3    2    2        0.0002490144
    5    4    2    1       -0.0312989339
    5    4    2    2        0.0000017250
    5    5    2    2        0.1326531172
    5    1    3    1       -0.0005935372
    5    1    3    3        0.0000000158
    5    2    3    2       -0.0005932676
    5    2    3    3        0.0005750839
    5    3    3    1        0.0000000064
    5    3    3    2        0.0002340345
    5    3    3    3        0.0076902327
    5    4    3    1        0.0002586386
    5    4    3    2       -0.0000000071
    5    5    3    1       -0.0000000037
    5    5    3    2       -0.0001337354
    5    5    3    3        0.1233560881
    5    1    4    1       -0.0000000428
    5    1    4    2       -0.0007760416
    5    1    4    3       -0.0001120955
    5    1    4    4       -0.0000000026
    5    2    4    1       -0.0007766868
    5    2    4    2        0.0000000428
    5    2    4    3        0.0000000031
    5    2    4    4       -0.0000933129
    5    3    4    1        0.0000005136
    5    3    4    4       -0.0021001176
    5    4    4    1       -0.0000000017
    5    4    4    2       -0.0000621816
    5    4    4    3       -0.0238710125
    5    5    4    1       -0.0000716371
    5    5    4    2        0.0000000020
    5    5    4    4        0.1181930897
    5    1    5    1        0.0005368662
    5    2    5    2        0.0005400814
    5    3    5    1        0.0000000287
    5    3    5    2        0.0010408522
    5    3    5    3        0.0173256249
    5    4    5    1        0.0008721283
    5    4    5    2       -0.0000000240
    5    4    5    4        0.0215730321
    5    5    5    1       -0.0000000016
    5    5    5    2       -0.0000567628
    5    5    5    3        0.0022816426
    5    5    5    5        0.1136225446
    6    6    1    1        0.1217619743
    6    6    2    2        0.1217620758
    6    6    3    1       -0.0000000019
    6    6    3    2       -0.0000687190
    6    6    3    3        0.1161457367
    6    6    4    1       -0.0000934722
    6    6    4    2        0.0000000026
    6    6    4    4        0.1092665192
    6    6    5    1        0.0000000047
    6    6    5    2        0.0001701740
    6    6    5    3        0.0055939520
    6    6    5    5        0.1001389347
    6    1    6    1        0.0003624682
    6    2    6    2        0.0003636638
    6    3    6    1        0.0000000218
    6    3    6    2        0.0007905905
    6    3    6    3        0.0142428894
    6    4    6    1        0.0006318385
    6    4    6    2       -0.0000000174
    6    4    6    4        0.0106510424
    6    5    6    1       -0.0000000016
    6    5    6    2       -0.0000563436
    6    5    6    3        0.0010120840
    6    5    6    5        0.0054898320
    6    6    6    6        0.1053365175
    7    7    1    1        0.1217619743
    7    7    2    2        0.1217620758
    7    7    3    1       -0.0000000019
    7    7    3    2       -0.0000687190
    7    7    3    3        0.1161457367
    7    7    4    1       -0.0000934722
    7    7    4    2        0.0000000026
    7    7    4    4        0.1092665192
    7    7    5    1        0.0000000047
    7    7    5    2        0.0001701740
    7    7    5    3        0.0055939520
    7    7    5    5        0.1001389347
    7    7    6    6        0.0965529678
    7    1    7    1        0.0003624682
    7    2    7    2        0.0003636638
    7    3    7    1        0.0000000218
    7    3    7    2        0.0007905905
    7    3    7    3        0.0142428894
    7    4    7    1        0.0006318385
    7    4    7    2       -0.0000000174
    7    4    7    4        0.0106510424
    7    5    7    1       -0.0000000016
    7    5    7    2       -0.0000563436
    7    5    7    3        0.0010120840
    7    5    7    5        0.0054898320
    7    6    7    6        0.0043917748
    7    7    7    7        0.1053365175
    8    6    1    1        0.0000024212
    8    7    1    1        0.0000012158
    8    8    1    1        0.1210859907
    8    6    2    1        0.0439306642
    8    6    2    2       -0.0000024212
    8    7    2    1        0.0220594142
    8    7    2    2       -0.0000012158
    8    8    2    2        0.1210860303
    8    6    3    1       -0.0001070994
    8    6    3    2        0.0000000030
    8    7    3    1       -0.0000537791
    8    7    3    2        0.0000000015
    8    8    3    1       -0.0000000029
    8    8    3    2       -0.0001067875
    8    8    3    3        0.1125644792
    8    6    4    1       -0.0000000008
    8    6    4    2       -0.0000284820
    8    6    4    3        0.0337193610
    8    7    4    1       -0.0000000004
    8    7    4    2       -0.0000143020
    8    7    4    3        0.0169318941
    8    8    4    1       -0.0000798913
    8    8    4    2        0.0000000022
    8    8    4    4        0.1093146726
    8    6    5    1       -0.0001354857
    8    6    5    2        0.0000000037
    8    6    5    4       -0.0153630271
    8    7    5    1       -0.0000680330
    8    7    5    2        0.0000000019
    8    7    5    4       -0.0077144151
    8    8    5    1        0.0000000009
    8    8    5    2        0.0000320614
    8    8    5    3        0.0006019741
    8    8    5    5        0.0980622171
    8    1    6    1        0.0000000196
    8    1    6    2        0.0003559921
    8    1    6    3        0.0007666006
    8    1    6    4        0.0000000170
    8    1    6    5       -0.0000554415
    8    2    6    1        0.0003549388
    8    2    6    2       -0.0000000196
    8    2    6    3       -0.0000000211
    8    2    6    4        0.0006182624
    8    2    6    5        0.0000000015
    8    3    6    1        0.0007008077
    8    3    6    2       -0.0000000193
    8    3    6    4        0.0092671059
    8    4    6    1        0.0000000178
    8    4    6    2        0.0006461279
    8    4    6    3        0.0115194939
    8    4    6    5       -0.0016102652
    8    5    6    1       -0.0001271358
    8    5    6    2        0.0000000035
    8    5    6    4       -0.0036477736
    8    8    6    6        0.1005122174
    8    1    7    1        0.0000000098
    8    1    7    2        0.0001787585
    8    1    7    3        0.0003849420
    8    1    7    4        0.0000000086
    8    1    7    5       -0.0000278395
    8    2    7    1        0.0001782296
    8    2    7    2       -0.0000000098
    8    2    7    3       -0.0000000106
    8    2    7    4        0.0003104553
    8    2    7    5        0.0000000008
    8    3    7    1        0.0003519047
    8    3    7    2       -0.0000000097
    8    3    7    4        0.0046533995
    8    4    7    1        0.0000000089
    8    4    7    2        0.0003244477
    8    4    7    3        0.0057844172
    8    4    7    5       -0.0008085812
    8    5    7    1       -0.0000638402
    8    5    7    2        0.0000000018
    8    5    7    4       -0.0018316989
    8    8    7    6        0.0033654758
    8    8    7    7        0.0954999184
    8    1    8    1        0.0004405765
    8    2    8    2        0.0004394661
    8    3    8    1        0.0000000236
    8    3    8    2        0.0008571520
    8    3    8    3        0.0107537247
    8    4    8    1        0.0007854268
    8    4    8    2       -0.0000000216
    8    4    8    4        0.0144286159
    8    5    8    1       -0.0000000043
    8    5    8    2       -0.0001558279
    8    5    8    3       -0.0033846385
    8    5    8    5        0.0045127486
    8    6    8    6        0.0282326083
    8    7    8    6        0.0123933937
    8    7    8    7        0.0097747738
    8    8    8    8        0.1021417650
    9    6    1    1       -0.0000012158
    9    7    1    1        0.0000024212
    9    9    1    1        0.1210859907
    9    6    2    1       -0.0220594142
    9    6    2    2        0.0000012158
    9    7    2    1        0.0439306642
    9    7    2    2       -0.0000024212
    9    9    2    2        0.1210860303
    9    6    3    1        0.0000537791
    9    6    3    2       -0.0000000015
    9    7    3    1       -0.0001070994
    9    7    3    2        0.0000000030
    9    9    3    1       -0.0000000029
    9    9    3    2       -0.0001067875
    9    9    3    3        0.1125644792
    9    6    4    1        0.0000000004
    9    6    4    2        0.0000143020
    9    6    4    3       -0.0169318941
    9    7    4    1       -0.0000000008
    9    7    4    2       -0.0000284820
    9    7    4    3        0.0337193610
    9    9    4    1       -0.0000798913
    9    9    4    2        0.0000000022
    9    9    4    4        0.1093146726
    9    6    5    1        0.0000680330
    9    6    5    2       -0.0000000019
    9    6    5    4        0.0077144151
    9    7    5    1       -0.0001354857
    9    7    5    2        0.0000000037
    9    7    5    4       -0.0153630271
    9    9    5    1        0.0000000009
    9    9    5    2        0.0000320614
    9    9    5    3        0.0006019741
    9    9    5    5        0.0980622171
    9    1    6    1       -0.0000000098
    9    1    6    2       -0.0001787585
    9    1    6    3       -0.0003849420
    9    1    6    4       -0.0000000086
    9    1    6    5        0.0000278395
    9    2    6    1       -0.0001782296
    9    2    6    2        0.0000000098
    9    2    6    3        0.0000000106
    9    2    6    4       -0.0003104553
    9    2    6    5       -0.0000000008
    9    3    6    1       -0.0003519047
    9    3    6    2        0.0000000097
    9    3    6    4       -0.0046533995
    9    4    6    1       -0.0000000089
    9    4    6    2       -0.0003244477
    9    4    6    3       -0.0057844172
    9    4    6    5        0.0008085812
    9    5    6    1        0.0000638402
    9    5    6    2       -0.0000000018
    9    5    6    4        0.0018316989
    9    8    6    6       -0.0033654758
    9    9    6    6        0.0954999184
    9    1    7    1        0.0000000196
    9    1    7    2        0.0003559921
    9    1    7    3        0.0007666006
    9    1    7    4        0.0000000170
    9    1    7    5       -0.0000554415
    9    2    7    1        0.0003549388
    9    2    7    2       -0.0000000196
    9    2    7    3       -0.0000000211
    9    2    7    4        0.0006182624
    9    2    7    5        0.0000000015
    9    3    7    1        0.0007008077
    9    3    7    2       -0.0000000193
    9    3    7    4        0.0092671059
    9    4    7    1        0.0000000178
    9    4    7    2        0.0006461279
    9    4    7    3        0.0115194939
    9    4    7    5       -0.0016102652
    9    5    7    1       -0.0001271358
    9    5    7    2        0.0000000035
    9    5    7    4       -0.0036477736
    9    8    7    6        0.0025061495
    9    8    7    7        0.0033654758
    9    9    7    6       -0.0033654758
    9    9    7    7        0.1005122174
    9    6    8    6       -0.0123933937
    9    6    8    7       -0.0026717034
    9    7    8    6        0.0211295379
    9    7    8    7        0.0123933937
    9    9    8    8        0.0931186671
    9    1    9    1        0.0004405765
    9    2    9    2        0.0004394661
    9    3    9    1        0.0000000236
    9    3    9    2        0.0008571520
    9    3    9    3        0.0107537247
    9    4    9    1        0.0007854268
    9    4    9    2       -0.0000000216
    9    4    9    4        0.0144286159
    9    5    9    1       -0.0000000043
    9    5    9    2       -0.0001558279
    9    5    9    3       -0.0033846385
    9    5    9    5        0.0045127486
    9    6    9    6        0.0097747738
    9    7    9    6       -0.0123933937
    9    7    9    7        0.0282326083
    9    8    9    8        0.0045115490
    9    9    9    9        0.1021417650
   10    1    1    1       -0.0225089444
   10    2    1    1       -0.0000006337
   10    3    1    1        0.0000020359
   10    4    1    1        0.0311590007
   10    5    1    1        0.0000022332
   10   10    1    1        0.1201580087
   10    1    2    1       -0.0000006270
   10    1    2    2       -0.0225087555
   10    2    2    1       -0.0227526298
   10    2    2    2        0.0000018743
   10    3    2    1        0.0369403978
   10    3    2    2       -0.0000020359
   10    4    2    2        0.0311590889
   10    5    2    1        0.0405193530
   10    5    2    2       -0.0000022332
   10   10    2    2        0.1201580535
   10    1    3    1        0.0000001390
   10    1    3    2        0.0025215151
   10    1    3    3       -0.0002603542
   10    2    3    1        0.0025211211
   10    2    3    2       -0.0000001390
   10    2    3    3        0.0000000072
   10    3    3    1       -0.0004971911
   10    3    3    2        0.0000000137
   10    4    3    1       -0.0000000090
   10    4    3    2       -0.0003270906
   10    4    3    3        0.0222976777
   10    5    3    1       -0.0000548652
   10    5    3    2        0.0000000015
   10   10    3    1       -0.0000000064
   10   10    3    2       -0.0002316815
   10   10    3    3        0.1089234729
   10    1    4    1        0.0028348426
   10    1    4    3       -0.0000000271
   10    1    4    4       -0.0005208579
   10    2    4    2        0.0028360710
   10    2    4    3       -0.0009846683
   10    2    4    4        0.0000000144
   10    3    4    1       -0.0000000271
   10    3    4    2       -0.0009816692
   10    3    4    3        0.0190666351
   10    4    4    1       -0.0005096503
   10    4    4    2        0.0000000140
   10    4    4    4        0.0120513932
   10    5    4    2       -0.0000025106
   10    5    4    3        0.0327170674
   10   10    4    1       -0.0002665237
   10   10    4    2        0.0000000073
   10   10    4    4        0.1064703016
   10    1    5    1        0.0000000048
   10    1    5    2        0.0000886482
   10    1    5    3        0.0008930558
   10    1    5    4        0.0000000193
   10    1    5    5       -0.0000870127
   10    2    5    1        0.0000858590
   10    2    5    2       -0.0000000048
   10    2    5    3       -0.0000000246
   10    2    5    4        0.0007021776
   10    2    5    5        0.0000000024
   10    3    5    1        0.0007528558
   10    3    5    2       -0.0000000207
   10    3    5    4        0.0021362189
   10    4    5    1        0.0000000188
   10    4    5    2        0.0006831890
   10    4    5    3        0.0107730523
   10    4    5    5        0.0056284763
   10    5    5    1       -0.0000809443
   10    5    5    2        0.0000000022
   10    5    5    4       -0.0192687462
   10   10    5    1        0.0000000076
   10   10    5    2        0.0002763967
   10   10    5    3        0.0000332080
   10   10    5    5        0.1021846012
   10    1    6    6        0.0001119472
   10    2    6    6       -0.0000000031
   10    4    6    6        0.0113401035
   10    6    6    1        0.0002032202
   10    6    6    2       -0.0000000056
   10    6    6    4        0.0012759589
   10    8    6    1        0.0000000050
   10    8    6    2        0.0001811253
   10    8    6    3        0.0021147321
   10    8    6    5        0.0033053746
   10    9    6    1       -0.0000000025
   10    9    6    2       -0.0000909505
   10    9    6    3       -0.0010618950
   10    9    6    5       -0.0016597661
   10   10    6    6        0.0908057197
   10    1    7    7        0.0001119472
   10    2    7    7       -0.0000000031
   10    4    7    7        0.0113401035
   10    7    7    1        0.0002032202
   10    7    7    2       -0.0000000056
   10    7    7    4        0.0012759589
   10    8    7    1        0.0000000025
   10    8    7    2        0.0000909505
   10    8    7    3        0.0010618950
   10    8    7    5        0.0016597661
   10    9    7    1        0.0000000050
   10    9    7    2        0.0001811253
   10    9    7    3        0.0021147321
   10    9    7    5        0.0033053746
   10   10    7    7        0.0908057197
   10    1    8    6       -0.0000000031
   10    1    8    7       -0.0000000015
   10    1    8    8       -0.0000032055
   10    2    8    6       -0.0001109282
   10    2    8    7       -0.0000557017
   10    3    8    6        0.0083032245
   10    3    8    7        0.0041693945
   10    4    8    8        0.0079272978
   10    5    8    6        0.0217058395
   10    5    8    7        0.0108994051
   10    6    8    1        0.0000000055
   10    6    8    2        0.0001978058
   10    6    8    3        0.0015655122
   10    6    8    5        0.0023468152
   10    7    8    1        0.0000000027
   10    7    8    2        0.0000993265
   10    7    8    3        0.0007861088
   10    7    8    5        0.0011784336
   10    8    8    1        0.0002160508
   10    8    8    2       -0.0000000060
   10    8    8    4        0.0005998831
   10   10    8    8        0.0908901050
   10    1    9    6        0.0000000015
   10    1    9    7       -0.0000000031
   10    1    9    9       -0.0000032055
   10    2    9    6        0.0000557017
   10    2    9    7       -0.0001109282
   10    3    9    6       -0.0041693945
   10    3    9    7        0.0083032245
   10    4    9    9        0.0079272978
   10    5    9    6       -0.0108994051
   10    5    9    7        0.0217058395
   10    6    9    1       -0.0000000027
   10    6    9    2       -0.0000993265
   10    6    9    3       -0.0007861088
   10    6    9    5       -0.0011784336
   10    7    9    1        0.0000000055
   10    7    9    2        0.0001978058
   10    7    9    3        0.0015655122
   10    7    9    5        0.0023468152
   10    9    9    1        0.0002160508
   10    9    9    2       -0.0000000060
   10    9    9    4        0.0005998831
   10   10    9    9        0.0908901050
   10    1   10    1        0.0015726802
   10    2   10    2        0.0015704049
   10    3   10    1        0.0000000057
   10    3   10    2        0.0002052494
   10    3   10    3        0.0113062597
   10    4   10    1        0.0003272885
   10    4   10    2       -0.0000000090
   10    4   10    4        0.0136513667
   10    5   10    1       -0.0000000015
   10    5   10    2       -0.0000534529
   10    5   10    3        0.0050686626
   10    5   10    5        0.0293724397
   10    6   10    6        0.0035744010
   10    7   10    7        0.0035744010
   10    8   10    8        0.0042542062
   10    9   10    9        0.0042542062
   10   10   10    1        0.0000955251
   10   10   10    2       -0.0000000026
   10   10   10    4        0.0025616930
   10   10   10   10        0.0994797288
 end_two_electron_integrals
 onebody.inp
     -4.6793128431     1
      0.0000000003     2
     -4.6793005384     3
      0.0000033003     4
      0.1197644308     5
     -1.0622276271     6
      0.1037789131     7
     -0.0000028598     8
     -0.0000000000     9
     -0.9707598261    10
     -0.0000003818    11
     -0.0138547585    12
     -0.0104425825    13
     -0.0000000000    14
     -0.7282329191    15
     -0.0000000000    16
     -0.0000000000    17
      0.0000000000    18
      0.0000000000    19
     -0.0000000000    20
     -0.6756720887    21
     -0.0000000000    22
     -0.0000000000    23
     -0.0000000000    24
      0.0000000000    25
     -0.0000000000    26
     -0.0000000000    27
     -0.6756720887    28
      0.0000000000    29
      0.0000000000    30
      0.0000000000    31
     -0.0000000000    32
     -0.0000000000    33
     -0.0000000000    34
     -0.0000000000    35
     -0.6574678843    36
      0.0000000000    37
      0.0000000000    38
     -0.0000000000    39
     -0.0000000000    40
      0.0000000000    41
      0.0000000000    42
     -0.0000000000    43
      0.0000000000    44
     -0.6574678843    45
      0.0432275603    46
     -0.0000011912    47
     -0.0000000000    48
     -0.1471565128    49
     -0.0000000000    50
     -0.0000000000    51
      0.0000000000    52
      0.0000000000    53
     -0.0000000000    54
     -0.6345330843    55
 twobody.inp
    1    1    1    1        0.8580858131
    1    1    1    2        0.0000429276
    1    1    1    3       -0.0000048650
    1    1    1    4       -0.0527403214
    1    1    1    5        0.0000004995
    1    1    1   10       -0.0225089444
    1    1    2    1        0.0000429276
    1    1    2    2        0.8580769352
    1    1    2    3       -0.0588164616
    1    1    2    4       -0.0000014498
    1    1    2    5        0.0062690016
    1    1    2   10       -0.0000006337
    1    1    3    1       -0.0000048650
    1    1    3    2       -0.0588164616
    1    1    3    3        0.1986794581
    1    1    3    4        0.0000057447
    1    1    3    5        0.0002490283
    1    1    3   10        0.0000020359
    1    1    4    1       -0.0527403214
    1    1    4    2       -0.0000014498
    1    1    4    3        0.0000057447
    1    1    4    4        0.1800967775
    1    1    4    5       -0.0000017250
    1    1    4   10        0.0311590007
    1    1    5    1        0.0000004995
    1    1    5    2        0.0062690016
    1    1    5    3        0.0002490283
    1    1    5    4       -0.0000017250
    1    1    5    5        0.1326533652
    1    1    5   10        0.0000022332
    1    1    6    6        0.1217619743
    1    1    6    8        0.0000024212
    1    1    6    9       -0.0000012158
    1    1    7    7        0.1217619743
    1    1    7    8        0.0000012158
    1    1    7    9        0.0000024212
    1    1    8    6        0.0000024212
    1    1    8    7        0.0000012158
    1    1    8    8        0.1210859907
    1    1    9    6       -0.0000012158
    1    1    9    7        0.0000024212
    1    1    9    9        0.1210859907
    1    1   10    1       -0.0225089444
    1    1   10    2       -0.0000006337
    1    1   10    3        0.0000020359
    1    1   10    4        0.0311590007
    1    1   10    5        0.0000022332
    1    1   10   10        0.1201580087
    1    2    1    1        0.0000429276
    1    2    1    2        0.7788958944
    1    2    1    3       -0.0588646878
    1    2    1    4       -0.0000014516
    1    2    1    5        0.0059292593
    1    2    1   10       -0.0000006270
    1    2    2    1        0.7788930093
    1    2    2    2       -0.0000429279
    1    2    2    3        0.0000016221
    1    2    2    4       -0.0526760070
    1    2    2    5       -0.0000001634
    1    2    2   10       -0.0227526298
    1    2    3    1       -0.0588639186
    1    2    3    2        0.0000016221
    1    2    3    4        0.1042321289
    1    2    3   10        0.0369403978
    1    2    4    1       -0.0000014516
    1    2    4    2       -0.0526771314
    1    2    4    3        0.1042330326
    1    2    4    5       -0.0312989339
    1    2    5    1        0.0059292941
    1    2    5    2       -0.0000001634
    1    2    5    4       -0.0312989318
    1    2    5   10        0.0405193530
    1    2    6    8        0.0439306642
    1    2    6    9       -0.0220594142
    1    2    7    8        0.0220594142
    1    2    7    9        0.0439306642
    1    2    8    6        0.0439306571
    1    2    8    7        0.0220594107
    1    2    9    6       -0.0220594107
    1    2    9    7        0.0439306571
    1    2   10    1       -0.0000006270
    1    2   10    2       -0.0227533524
    1    2   10    3        0.0369409736
    1    2   10    5        0.0405194486
    1    3    1    1       -0.0000048650
    1    3    1    2       -0.0588646878
    1    3    1    3        0.0053606995
    1    3    1    4        0.0000003195
    1    3    1    5       -0.0005935372
    1    3    1   10        0.0000001390
    1    3    2    1       -0.0588639186
    1    3    2    2        0.0000016234
    1    3    2    4        0.0057976177
    1    3    2   10        0.0025211211
    1    3    3    1        0.0064105550
    1    3    3    3       -0.0000000392
    1    3    3    4       -0.0013615219
    1    3    3    5        0.0000000064
    1    3    3   10       -0.0004971911
    1    3    4    1        0.0000004077
    1    3    4    2        0.0073973731
    1    3    4    3       -0.0014014085
    1    3    4    4       -0.0000000271
    1    3    4    5        0.0002586386
    1    3    4   10       -0.0000000090
    1    3    5    1       -0.0006300853
    1    3    5    3        0.0000000043
    1    3    5    4        0.0002298508
    1    3    5    5       -0.0000000037
    1    3    5   10       -0.0000548652
    1    3    6    6       -0.0000000019
    1    3    6    8       -0.0001070994
    1    3    6    9        0.0000537791
    1    3    7    7       -0.0000000019
    1    3    7    8       -0.0000537791
    1    3    7    9       -0.0001070994
    1    3    8    6       -0.0001103301
    1    3    8    7       -0.0000554013
    1    3    8    8       -0.0000000029
    1    3    9    6        0.0000554013
    1    3    9    7       -0.0001103301
    1    3    9    9       -0.0000000029
    1    3   10    1        0.0000001618
    1    3   10    2        0.0029351827
    1    3   10    3       -0.0004801199
    1    3   10    4       -0.0000000093
    1    3   10    5       -0.0000526118
    1    3   10   10       -0.0000000064
    1    4    1    1       -0.0527403214
    1    4    1    2       -0.0000014516
    1    4    1    3        0.0000003195
    1    4    1    4        0.0066715873
    1    4    1    5       -0.0000000428
    1    4    1   10        0.0028348426
    1    4    2    1       -0.0000014516
    1    4    2    2       -0.0527395181
    1    4    2    3        0.0057975028
    1    4    2    5       -0.0007766868
    1    4    3    1        0.0000004077
    1    4    3    2        0.0073963051
    1    4    3    3       -0.0015863930
    1    4    3    4       -0.0000000521
    1    4    3    5        0.0000005136
    1    4    3   10       -0.0000000271
    1    4    4    1        0.0050811698
    1    4    4    3       -0.0000000264
    1    4    4    4       -0.0008369517
    1    4    4    5       -0.0000000017
    1    4    4   10       -0.0005096503
    1    4    5    1       -0.0000000374
    1    4    5    2       -0.0006786936
    1    4    5    3       -0.0000862180
    1    4    5    4       -0.0000000016
    1    4    5    5       -0.0000716371
    1    4    6    6       -0.0000934722
    1    4    6    8       -0.0000000008
    1    4    6    9        0.0000000004
    1    4    7    7       -0.0000934722
    1    4    7    8       -0.0000000004
    1    4    7    9       -0.0000000008
    1    4    8    6       -0.0000000008
    1    4    8    7       -0.0000000004
    1    4    8    8       -0.0000798913
    1    4    9    6        0.0000000004
    1    4    9    7       -0.0000000008
    1    4    9    9       -0.0000798913
    1    4   10    1        0.0021177859
    1    4   10    3       -0.0000000151
    1    4   10    4       -0.0004963346
    1    4   10    5       -0.0000000002
    1    4   10   10       -0.0002665237
    1    5    1    1        0.0000004995
    1    5    1    2        0.0059292593
    1    5    1    3       -0.0005935372
    1    5    1    4       -0.0000000428
    1    5    1    5        0.0005368662
    1    5    1   10        0.0000000048
    1    5    2    1        0.0059292941
    1    5    2    2       -0.0000001540
    1    5    2    4       -0.0007760416
    1    5    2   10        0.0000858590
    1    5    3    1       -0.0006300853
    1    5    3    3        0.0000000158
    1    5    3    4       -0.0001120955
    1    5    3    5        0.0000000287
    1    5    3   10        0.0007528558
    1    5    4    1       -0.0000000374
    1    5    4    2       -0.0006780302
    1    5    4    3       -0.0001097999
    1    5    4    4       -0.0000000026
    1    5    4    5        0.0008721283
    1    5    4   10        0.0000000188
    1    5    5    1        0.0004902575
    1    5    5    3        0.0000000254
    1    5    5    4        0.0008492989
    1    5    5    5       -0.0000000016
    1    5    5   10       -0.0000809443
    1    5    6    6        0.0000000047
    1    5    6    8       -0.0001354857
    1    5    6    9        0.0000680330
    1    5    7    7        0.0000000047
    1    5    7    8       -0.0000680330
    1    5    7    9       -0.0001354857
    1    5    8    6       -0.0001342860
    1    5    8    7       -0.0000674306
    1    5    8    8        0.0000000009
    1    5    9    6        0.0000674306
    1    5    9    7       -0.0001342860
    1    5    9    9        0.0000000009
    1    5   10    1        0.0000000042
    1    5   10    2        0.0000751893
    1    5   10    3        0.0006202403
    1    5   10    4        0.0000000184
    1    5   10    5       -0.0000731240
    1    5   10   10        0.0000000076
    1    6    1    6        0.0003624682
    1    6    1    8        0.0000000196
    1    6    1    9       -0.0000000098
    1    6    2    8        0.0003549388
    1    6    2    9       -0.0001782296
    1    6    3    6        0.0000000218
    1    6    3    8        0.0007008077
    1    6    3    9       -0.0003519047
    1    6    4    6        0.0006318385
    1    6    4    8        0.0000000178
    1    6    4    9       -0.0000000089
    1    6    5    6       -0.0000000016
    1    6    5    8       -0.0001271358
    1    6    5    9        0.0000638402
    1    6    6    1        0.0003208587
    1    6    6    3        0.0000000191
    1    6    6    4        0.0006213475
    1    6    6    5       -0.0000000016
    1    6    6   10        0.0002032202
    1    6    8    1        0.0000000173
    1    6    8    2        0.0003130783
    1    6    8    3        0.0005955085
    1    6    8    4        0.0000000175
    1    6    8    5       -0.0001264428
    1    6    8   10        0.0000000050
    1    6    9    1       -0.0000000087
    1    6    9    2       -0.0001572097
    1    6    9    3       -0.0002990296
    1    6    9    4       -0.0000000088
    1    6    9    5        0.0000634922
    1    6    9   10       -0.0000000025
    1    6   10    6        0.0002066805
    1    6   10    8        0.0000000051
    1    6   10    9       -0.0000000026
    1    7    1    7        0.0003624682
    1    7    1    8        0.0000000098
    1    7    1    9        0.0000000196
    1    7    2    8        0.0001782296
    1    7    2    9        0.0003549388
    1    7    3    7        0.0000000218
    1    7    3    8        0.0003519047
    1    7    3    9        0.0007008077
    1    7    4    7        0.0006318385
    1    7    4    8        0.0000000089
    1    7    4    9        0.0000000178
    1    7    5    7       -0.0000000016
    1    7    5    8       -0.0000638402
    1    7    5    9       -0.0001271358
    1    7    7    1        0.0003208587
    1    7    7    3        0.0000000191
    1    7    7    4        0.0006213475
    1    7    7    5       -0.0000000016
    1    7    7   10        0.0002032202
    1    7    8    1        0.0000000087
    1    7    8    2        0.0001572097
    1    7    8    3        0.0002990296
    1    7    8    4        0.0000000088
    1    7    8    5       -0.0000634922
    1    7    8   10        0.0000000025
    1    7    9    1        0.0000000173
    1    7    9    2        0.0003130783
    1    7    9    3        0.0005955085
    1    7    9    4        0.0000000175
    1    7    9    5       -0.0001264428
    1    7    9   10        0.0000000050
    1    7   10    7        0.0002066805
    1    7   10    8        0.0000000026
    1    7   10    9        0.0000000051
    1    8    1    6        0.0000000196
    1    8    1    7        0.0000000098
    1    8    1    8        0.0004405765
    1    8    2    6        0.0003559921
    1    8    2    7        0.0001787585
    1    8    3    6        0.0007666006
    1    8    3    7        0.0003849420
    1    8    3    8        0.0000000236
    1    8    4    6        0.0000000170
    1    8    4    7        0.0000000086
    1    8    4    8        0.0007854268
    1    8    5    6       -0.0000554415
    1    8    5    7       -0.0000278395
    1    8    5    8       -0.0000000043
    1    8    6    1        0.0000000173
    1    8    6    2        0.0003140122
    1    8    6    3        0.0006702357
    1    8    6    4        0.0000000167
    1    8    6    5       -0.0000561893
    1    8    6   10        0.0000000055
    1    8    7    1        0.0000000087
    1    8    7    2        0.0001576786
    1    8    7    3        0.0003365532
    1    8    7    4        0.0000000084
    1    8    7    5       -0.0000282150
    1    8    7   10        0.0000000027
    1    8    8    1        0.0003834132
    1    8    8    3        0.0000000201
    1    8    8    4        0.0007674438
    1    8    8    5       -0.0000000043
    1    8    8   10        0.0002160508
    1    8   10    6        0.0000000055
    1    8   10    7        0.0000000028
    1    8   10    8        0.0002211582
    1    9    1    6       -0.0000000098
    1    9    1    7        0.0000000196
    1    9    1    9        0.0004405765
    1    9    2    6       -0.0001787585
    1    9    2    7        0.0003559921
    1    9    3    6       -0.0003849420
    1    9    3    7        0.0007666006
    1    9    3    9        0.0000000236
    1    9    4    6       -0.0000000086
    1    9    4    7        0.0000000170
    1    9    4    9        0.0007854268
    1    9    5    6        0.0000278395
    1    9    5    7       -0.0000554415
    1    9    5    9       -0.0000000043
    1    9    6    1       -0.0000000087
    1    9    6    2       -0.0001576786
    1    9    6    3       -0.0003365532
    1    9    6    4       -0.0000000084
    1    9    6    5        0.0000282150
    1    9    6   10       -0.0000000027
    1    9    7    1        0.0000000173
    1    9    7    2        0.0003140122
    1    9    7    3        0.0006702357
    1    9    7    4        0.0000000167
    1    9    7    5       -0.0000561893
    1    9    7   10        0.0000000055
    1    9    9    1        0.0003834132
    1    9    9    3        0.0000000201
    1    9    9    4        0.0007674438
    1    9    9    5       -0.0000000043
    1    9    9   10        0.0002160508
    1    9   10    6       -0.0000000028
    1    9   10    7        0.0000000055
    1    9   10    9        0.0002211582
    1   10    1    1       -0.0225089444
    1   10    1    2       -0.0000006270
    1   10    1    3        0.0000001390
    1   10    1    4        0.0028348426
    1   10    1    5        0.0000000048
    1   10    1   10        0.0015726802
    1   10    2    1       -0.0000006270
    1   10    2    2       -0.0225087555
    1   10    2    3        0.0025215151
    1   10    2    5        0.0000886482
    1   10    3    1        0.0000001618
    1   10    3    2        0.0029351433
    1   10    3    3       -0.0002603542
    1   10    3    4       -0.0000000271
    1   10    3    5        0.0008930558
    1   10    3   10        0.0000000057
    1   10    4    1        0.0021177859
    1   10    4    3       -0.0000000155
    1   10    4    4       -0.0005208579
    1   10    4    5        0.0000000193
    1   10    4   10        0.0003272885
    1   10    5    1        0.0000000042
    1   10    5    2        0.0000773770
    1   10    5    3        0.0007541836
    1   10    5    4        0.0000000190
    1   10    5    5       -0.0000870127
    1   10    5   10       -0.0000000015
    1   10    6    6        0.0001119472
    1   10    6    8       -0.0000000031
    1   10    6    9        0.0000000015
    1   10    7    7        0.0001119472
    1   10    7    8       -0.0000000015
    1   10    7    9       -0.0000000031
    1   10    8    6       -0.0000000031
    1   10    8    7       -0.0000000015
    1   10    8    8       -0.0000032055
    1   10    9    6        0.0000000015
    1   10    9    7       -0.0000000031
    1   10    9    9       -0.0000032055
    1   10   10    1        0.0012078642
    1   10   10    3        0.0000000070
    1   10   10    4        0.0003257647
    1   10   10    5       -0.0000000014
    1   10   10   10        0.0000955251
    2    1    1    1        0.0000429276
    2    1    1    2        0.7788930093
    2    1    1    3       -0.0588639186
    2    1    1    4       -0.0000014516
    2    1    1    5        0.0059292941
    2    1    1   10       -0.0000006270
    2    1    2    1        0.7788958944
    2    1    2    2       -0.0000429279
    2    1    2    3        0.0000016221
    2    1    2    4       -0.0526771314
    2    1    2    5       -0.0000001634
    2    1    2   10       -0.0227533524
    2    1    3    1       -0.0588646878
    2    1    3    2        0.0000016221
    2    1    3    4        0.1042330326
    2    1    3   10        0.0369409736
    2    1    4    1       -0.0000014516
    2    1    4    2       -0.0526760070
    2    1    4    3        0.1042321289
    2    1    4    5       -0.0312989318
    2    1    5    1        0.0059292593
    2    1    5    2       -0.0000001634
    2    1    5    4       -0.0312989339
    2    1    5   10        0.0405194486
    2    1    6    8        0.0439306571
    2    1    6    9       -0.0220594107
    2    1    7    8        0.0220594107
    2    1    7    9        0.0439306571
    2    1    8    6        0.0439306642
    2    1    8    7        0.0220594142
    2    1    9    6       -0.0220594142
    2    1    9    7        0.0439306642
    2    1   10    1       -0.0000006270
    2    1   10    2       -0.0227526298
    2    1   10    3        0.0369403978
    2    1   10    5        0.0405193530
    2    2    1    1        0.8580769352
    2    2    1    2       -0.0000429279
    2    2    1    3        0.0000016234
    2    2    1    4       -0.0527395181
    2    2    1    5       -0.0000001540
    2    2    1   10       -0.0225087555
    2    2    2    1       -0.0000429279
    2    2    2    2        0.8580738410
    2    2    2    3       -0.0588169789
    2    2    2    4        0.0000043565
    2    2    2    5        0.0062692553
[...]
      0.1233560881     5   5   3   3
     -0.0000716371     5   5   4   1
      0.0000000020     5   5   4   2
      0.1181930897     5   5   4   4
     -0.0000000016     5   5   5   1
     -0.0000567628     5   5   5   2
      0.0022816426     5   5   5   3
      0.1136225446     5   5   5   5
      0.0003624682     6   1   6   1
      0.0003636638     6   2   6   2
      0.0000000218     6   3   6   1
      0.0007905905     6   3   6   2
      0.0142428894     6   3   6   3
      0.0006318385     6   4   6   1
     -0.0000000174     6   4   6   2
      0.0106510424     6   4   6   4
     -0.0000000016     6   5   6   1
     -0.0000563436     6   5   6   2
      0.0010120840     6   5   6   3
      0.0054898320     6   5   6   5
      0.1217619743     6   6   1   1
      0.1217620758     6   6   2   2
     -0.0000000019     6   6   3   1
     -0.0000687190     6   6   3   2
      0.1161457367     6   6   3   3
     -0.0000934722     6   6   4   1
      0.0000000026     6   6   4   2
      0.1092665192     6   6   4   4
      0.0000000047     6   6   5   1
      0.0001701740     6   6   5   2
      0.0055939520     6   6   5   3
      0.1001389347     6   6   5   5
      0.1053365175     6   6   6   6
      0.0003624682     7   1   7   1
      0.0003636638     7   2   7   2
      0.0000000218     7   3   7   1
      0.0007905905     7   3   7   2
      0.0142428894     7   3   7   3
      0.0006318385     7   4   7   1
     -0.0000000174     7   4   7   2
      0.0106510424     7   4   7   4
     -0.0000000016     7   5   7   1
     -0.0000563436     7   5   7   2
      0.0010120840     7   5   7   3
      0.0054898320     7   5   7   5
      0.0043917748     7   6   7   6
      0.1217619743     7   7   1   1
      0.1217620758     7   7   2   2
     -0.0000000019     7   7   3   1
     -0.0000687190     7   7   3   2
      0.1161457367     7   7   3   3
     -0.0000934722     7   7   4   1
      0.0000000026     7   7   4   2
      0.1092665192     7   7   4   4
      0.0000000047     7   7   5   1
      0.0001701740     7   7   5   2
      0.0055939520     7   7   5   3
      0.1001389347     7   7   5   5
      0.0965529678     7   7   6   6
      0.1053365175     7   7   7   7
      0.0000000196     8   1   6   1
      0.0003559921     8   1   6   2
      0.0007666006     8   1   6   3
      0.0000000170     8   1   6   4
     -0.0000554415     8   1   6   5
      0.0000000098     8   1   7   1
      0.0001787585     8   1   7   2
      0.0003849420     8   1   7   3
      0.0000000086     8   1   7   4
     -0.0000278395     8   1   7   5
      0.0004405765     8   1   8   1
      0.0003549388     8   2   6   1
     -0.0000000196     8   2   6   2
     -0.0000000211     8   2   6   3
      0.0006182624     8   2   6   4
      0.0000000015     8   2   6   5
      0.0001782296     8   2   7   1
     -0.0000000098     8   2   7   2
     -0.0000000106     8   2   7   3
      0.0003104553     8   2   7   4
      0.0000000008     8   2   7   5
      0.0004394661     8   2   8   2
      0.0007008077     8   3   6   1
     -0.0000000193     8   3   6   2
      0.0092671059     8   3   6   4
      0.0003519047     8   3   7   1
     -0.0000000097     8   3   7   2
      0.0046533995     8   3   7   4
      0.0000000236     8   3   8   1
      0.0008571520     8   3   8   2
      0.0107537247     8   3   8   3
      0.0000000178     8   4   6   1
      0.0006461279     8   4   6   2
      0.0115194939     8   4   6   3
     -0.0016102652     8   4   6   5
      0.0000000089     8   4   7   1
      0.0003244477     8   4   7   2
      0.0057844172     8   4   7   3
     -0.0008085812     8   4   7   5
      0.0007854268     8   4   8   1
     -0.0000000216     8   4   8   2
      0.0144286159     8   4   8   4
     -0.0001271358     8   5   6   1
      0.0000000035     8   5   6   2
     -0.0036477736     8   5   6   4
     -0.0000638402     8   5   7   1
      0.0000000018     8   5   7   2
     -0.0018316989     8   5   7   4
     -0.0000000043     8   5   8   1
     -0.0001558279     8   5   8   2
     -0.0033846385     8   5   8   3
      0.0045127486     8   5   8   5
      0.0000024212     8   6   1   1
      0.0439306642     8   6   2   1
     -0.0000024212     8   6   2   2
     -0.0001070994     8   6   3   1
      0.0000000030     8   6   3   2
     -0.0000000008     8   6   4   1
     -0.0000284820     8   6   4   2
      0.0337193610     8   6   4   3
     -0.0001354857     8   6   5   1
      0.0000000037     8   6   5   2
     -0.0153630271     8   6   5   4
      0.0282326083     8   6   8   6
      0.0000012158     8   7   1   1
      0.0220594142     8   7   2   1
     -0.0000012158     8   7   2   2
     -0.0000537791     8   7   3   1
      0.0000000015     8   7   3   2
     -0.0000000004     8   7   4   1
     -0.0000143020     8   7   4   2
      0.0169318941     8   7   4   3
     -0.0000680330     8   7   5   1
      0.0000000019     8   7   5   2
     -0.0077144151     8   7   5   4
      0.0123933937     8   7   8   6
      0.0097747738     8   7   8   7
      0.1210859907     8   8   1   1
      0.1210860303     8   8   2   2
     -0.0000000029     8   8   3   1
     -0.0001067875     8   8   3   2
      0.1125644792     8   8   3   3
     -0.0000798913     8   8   4   1
      0.0000000022     8   8   4   2
      0.1093146726     8   8   4   4
      0.0000000009     8   8   5   1
      0.0000320614     8   8   5   2
      0.0006019741     8   8   5   3
      0.0980622171     8   8   5   5
      0.1005122174     8   8   6   6
      0.0033654758     8   8   7   6
      0.0954999184     8   8   7   7
      0.1021417650     8   8   8   8
     -0.0000000098     9   1   6   1
     -0.0001787585     9   1   6   2
     -0.0003849420     9   1   6   3
     -0.0000000086     9   1   6   4
      0.0000278395     9   1   6   5
      0.0000000196     9   1   7   1
      0.0003559921     9   1   7   2
      0.0007666006     9   1   7   3
      0.0000000170     9   1   7   4
     -0.0000554415     9   1   7   5
      0.0004405765     9   1   9   1
     -0.0001782296     9   2   6   1
      0.0000000098     9   2   6   2
      0.0000000106     9   2   6   3
     -0.0003104553     9   2   6   4
     -0.0000000008     9   2   6   5
      0.0003549388     9   2   7   1
     -0.0000000196     9   2   7   2
     -0.0000000211     9   2   7   3
      0.0006182624     9   2   7   4
      0.0000000015     9   2   7   5
      0.0004394661     9   2   9   2
     -0.0003519047     9   3   6   1
      0.0000000097     9   3   6   2
     -0.0046533995     9   3   6   4
      0.0007008077     9   3   7   1
     -0.0000000193     9   3   7   2
      0.0092671059     9   3   7   4
      0.0000000236     9   3   9   1
      0.0008571520     9   3   9   2
      0.0107537247     9   3   9   3
     -0.0000000089     9   4   6   1
     -0.0003244477     9   4   6   2
     -0.0057844172     9   4   6   3
      0.0008085812     9   4   6   5
      0.0000000178     9   4   7   1
      0.0006461279     9   4   7   2
      0.0115194939     9   4   7   3
     -0.0016102652     9   4   7   5
      0.0007854268     9   4   9   1
     -0.0000000216     9   4   9   2
      0.0144286159     9   4   9   4
      0.0000638402     9   5   6   1
     -0.0000000018     9   5   6   2
      0.0018316989     9   5   6   4
     -0.0001271358     9   5   7   1
      0.0000000035     9   5   7   2
     -0.0036477736     9   5   7   4
     -0.0000000043     9   5   9   1
     -0.0001558279     9   5   9   2
     -0.0033846385     9   5   9   3
      0.0045127486     9   5   9   5
     -0.0000012158     9   6   1   1
     -0.0220594142     9   6   2   1
      0.0000012158     9   6   2   2
      0.0000537791     9   6   3   1
     -0.0000000015     9   6   3   2
      0.0000000004     9   6   4   1
      0.0000143020     9   6   4   2
     -0.0169318941     9   6   4   3
      0.0000680330     9   6   5   1
     -0.0000000019     9   6   5   2
      0.0077144151     9   6   5   4
     -0.0123933937     9   6   8   6
     -0.0026717034     9   6   8   7
      0.0097747738     9   6   9   6
      0.0000024212     9   7   1   1
      0.0439306642     9   7   2   1
     -0.0000024212     9   7   2   2
     -0.0001070994     9   7   3   1
      0.0000000030     9   7   3   2
     -0.0000000008     9   7   4   1
     -0.0000284820     9   7   4   2
      0.0337193610     9   7   4   3
     -0.0001354857     9   7   5   1
      0.0000000037     9   7   5   2
     -0.0153630271     9   7   5   4
      0.0211295379     9   7   8   6
      0.0123933937     9   7   8   7
     -0.0123933937     9   7   9   6
      0.0282326083     9   7   9   7
     -0.0033654758     9   8   6   6
      0.0025061495     9   8   7   6
      0.0033654758     9   8   7   7
      0.0045115490     9   8   9   8
      0.1210859907     9   9   1   1
      0.1210860303     9   9   2   2
     -0.0000000029     9   9   3   1
     -0.0001067875     9   9   3   2
      0.1125644792     9   9   3   3
     -0.0000798913     9   9   4   1
      0.0000000022     9   9   4   2
      0.1093146726     9   9   4   4
      0.0000000009     9   9   5   1
      0.0000320614     9   9   5   2
      0.0006019741     9   9   5   3
      0.0980622171     9   9   5   5
      0.0954999184     9   9   6   6
     -0.0033654758     9   9   7   6
      0.1005122174     9   9   7   7
      0.0931186671     9   9   8   8
      0.1021417650     9   9   9   9
     -0.0225089444    10   1   1   1
     -0.0000006270    10   1   2   1
     -0.0225087555    10   1   2   2
      0.0000001390    10   1   3   1
      0.0025215151    10   1   3   2
     -0.0002603542    10   1   3   3
      0.0028348426    10   1   4   1
     -0.0000000271    10   1   4   3
     -0.0005208579    10   1   4   4
      0.0000000048    10   1   5   1
      0.0000886482    10   1   5   2
      0.0008930558    10   1   5   3
      0.0000000193    10   1   5   4
     -0.0000870127    10   1   5   5
      0.0001119472    10   1   6   6
      0.0001119472    10   1   7   7
     -0.0000000031    10   1   8   6
     -0.0000000015    10   1   8   7
     -0.0000032055    10   1   8   8
      0.0000000015    10   1   9   6
     -0.0000000031    10   1   9   7
     -0.0000032055    10   1   9   9
      0.0015726802    10   1  10   1
     -0.0000006337    10   2   1   1
     -0.0227526298    10   2   2   1
      0.0000018743    10   2   2   2
      0.0025211211    10   2   3   1
     -0.0000001390    10   2   3   2
      0.0000000072    10   2   3   3
      0.0028360710    10   2   4   2
     -0.0009846683    10   2   4   3
      0.0000000144    10   2   4   4
      0.0000858590    10   2   5   1
     -0.0000000048    10   2   5   2
     -0.0000000246    10   2   5   3
      0.0007021776    10   2   5   4
      0.0000000024    10   2   5   5
     -0.0000000031    10   2   6   6
     -0.0000000031    10   2   7   7
     -0.0001109282    10   2   8   6
     -0.0000557017    10   2   8   7
      0.0000557017    10   2   9   6
     -0.0001109282    10   2   9   7
      0.0015704049    10   2  10   2
      0.0000020359    10   3   1   1
      0.0369403978    10   3   2   1
     -0.0000020359    10   3   2   2
     -0.0004971911    10   3   3   1
      0.0000000137    10   3   3   2
     -0.0000000271    10   3   4   1
     -0.0009816692    10   3   4   2
      0.0190666351    10   3   4   3
      0.0007528558    10   3   5   1
     -0.0000000207    10   3   5   2
      0.0021362189    10   3   5   4
      0.0083032245    10   3   8   6
      0.0041693945    10   3   8   7
     -0.0041693945    10   3   9   6
      0.0083032245    10   3   9   7
      0.0000000057    10   3  10   1
      0.0002052494    10   3  10   2
      0.0113062597    10   3  10   3
      0.0311590007    10   4   1   1
      0.0311590889    10   4   2   2
     -0.0000000090    10   4   3   1
     -0.0003270906    10   4   3   2
      0.0222976777    10   4   3   3
     -0.0005096503    10   4   4   1
      0.0000000140    10   4   4   2
      0.0120513932    10   4   4   4
      0.0000000188    10   4   5   1
      0.0006831890    10   4   5   2
      0.0107730523    10   4   5   3
      0.0056284763    10   4   5   5
      0.0113401035    10   4   6   6
      0.0113401035    10   4   7   7
      0.0079272978    10   4   8   8
      0.0079272978    10   4   9   9
      0.0003272885    10   4  10   1
     -0.0000000090    10   4  10   2
      0.0136513667    10   4  10   4
      0.0000022332    10   5   1   1
      0.0405193530    10   5   2   1
     -0.0000022332    10   5   2   2
     -0.0000548652    10   5   3   1
      0.0000000015    10   5   3   2
     -0.0000025106    10   5   4   2
      0.0327170674    10   5   4   3
     -0.0000809443    10   5   5   1
      0.0000000022    10   5   5   2
     -0.0192687462    10   5   5   4
      0.0217058395    10   5   8   6
      0.0108994051    10   5   8   7
     -0.0108994051    10   5   9   6
      0.0217058395    10   5   9   7
     -0.0000000015    10   5  10   1
     -0.0000534529    10   5  10   2
      0.0050686626    10   5  10   3
      0.0293724397    10   5  10   5
      0.0002032202    10   6   6   1
     -0.0000000056    10   6   6   2
      0.0012759589    10   6   6   4
      0.0000000055    10   6   8   1
      0.0001978058    10   6   8   2
      0.0015655122    10   6   8   3
      0.0023468152    10   6   8   5
     -0.0000000027    10   6   9   1
     -0.0000993265    10   6   9   2
     -0.0007861088    10   6   9   3
     -0.0011784336    10   6   9   5
      0.0035744010    10   6  10   6
      0.0002032202    10   7   7   1
     -0.0000000056    10   7   7   2
      0.0012759589    10   7   7   4
      0.0000000027    10   7   8   1
      0.0000993265    10   7   8   2
      0.0007861088    10   7   8   3
      0.0011784336    10   7   8   5
      0.0000000055    10   7   9   1
      0.0001978058    10   7   9   2
      0.0015655122    10   7   9   3
      0.0023468152    10   7   9   5
      0.0035744010    10   7  10   7
      0.0000000050    10   8   6   1
      0.0001811253    10   8   6   2
      0.0021147321    10   8   6   3
      0.0033053746    10   8   6   5
      0.0000000025    10   8   7   1
      0.0000909505    10   8   7   2
      0.0010618950    10   8   7   3
      0.0016597661    10   8   7   5
      0.0002160508    10   8   8   1
     -0.0000000060    10   8   8   2
      0.0005998831    10   8   8   4
      0.0042542062    10   8  10   8
     -0.0000000025    10   9   6   1
     -0.0000909505    10   9   6   2
     -0.0010618950    10   9   6   3
     -0.0016597661    10   9   6   5
      0.0000000050    10   9   7   1
      0.0001811253    10   9   7   2
      0.0021147321    10   9   7   3
      0.0033053746    10   9   7   5
      0.0002160508    10   9   9   1
     -0.0000000060    10   9   9   2
      0.0005998831    10   9   9   4
      0.0042542062    10   9  10   9
      0.1201580087    10  10   1   1
      0.1201580535    10  10   2   2
     -0.0000000064    10  10   3   1
     -0.0002316815    10  10   3   2
      0.1089234729    10  10   3   3
     -0.0002665237    10  10   4   1
      0.0000000073    10  10   4   2
      0.1064703016    10  10   4   4
      0.0000000076    10  10   5   1
      0.0002763967    10  10   5   2
      0.0000332080    10  10   5   3
      0.1021846012    10  10   5   5
      0.0908057197    10  10   6   6
      0.0908057197    10  10   7   7
      0.0908901050    10  10   8   8
      0.0908901050    10  10   9   9
      0.0000955251    10  10  10   1
     -0.0000000026    10  10  10   2
      0.0025616930    10  10  10   4
      0.0994797288    10  10  10  10
     -4.6793128431     1   1   0   0
      0.0000000003     2   1   0   0
     -4.6793005384     2   2   0   0
      0.0000033003     3   1   0   0
      0.1197644308     3   2   0   0
     -1.0622276271     3   3   0   0
      0.1037789131     4   1   0   0
     -0.0000028598     4   2   0   0
     -0.9707598261     4   4   0   0
     -0.0000003818     5   1   0   0
     -0.0138547585     5   2   0   0
     -0.0104425825     5   3   0   0
     -0.7282329191     5   5   0   0
     -0.6756720887     6   6   0   0
     -0.6756720887     7   7   0   0
     -0.6574678843     8   8   0   0
     -0.6574678843     9   9   0   0
      0.0432275603    10   1   0   0
     -0.0000011912    10   2   0   0
     -0.1471565128    10   4   0   0
     -0.6345330843    10  10   0   0

 Parallel integral file used       8 records with       0 large values


 Task  times  cpu:      748.7s     wall:      753.5s


                                NWChem Input Module
                                -------------------


 Summary of allocated global arrays
-----------------------------------
  No active global arrays



                         GA Statistics for process    0
                         ------------------------------

       create   destroy   get      put      acc     scatter   gather  read&inc
calls: 2220     2220     3.58e+06 1.99e+04 1.44e+05    0        0     1.91e+05 
number of processes/call 1.00e+00 1.00e+00 1.00e+00 0.00e+00 0.00e+00
bytes total:             1.33e+10 1.03e+08 2.39e+08 0.00e+00 0.00e+00 1.53e+06
bytes remote:            0.00e+00 0.00e+00 0.00e+00 0.00e+00 0.00e+00 0.00e+00
Max memory consumed for GA by this process: 73662736 bytes

MA_summarize_allocated_blocks: starting scan ...
MA_summarize_allocated_blocks: scan completed: 0 heap blocks, 0 stack blocks
MA usage statistics:

	allocation statistics:
					      heap	     stack
					      ----	     -----
	current number of blocks	         0	         0
	maximum number of blocks	        17	        40
	current total bytes		         0	         0
	maximum total bytes		  28329720	8298725256
	maximum total K-bytes		     28330	   8298726
	maximum total M-bytes		        29	      8299


                                     CITATION
                                     --------
                Please cite the following reference when publishing
                           results obtained with NWChem:

                 M. Valiev, E.J. Bylaska, N. Govind, K. Kowalski,
              T.P. Straatsma, H.J.J. van Dam, D. Wang, J. Nieplocha,
                        E. Apra, T.L. Windus, W.A. de Jong
                 "NWChem: a comprehensive and scalable open-source
                  solution for large scale molecular simulations"
                      Comput. Phys. Commun. 181, 1477 (2010)
                           doi:10.1016/j.cpc.2010.04.018

                                      AUTHORS
                                      -------
          E. Apra, E. J. Bylaska, W. A. de Jong, N. Govind, K. Kowalski,
       T. P. Straatsma, M. Valiev, H. J. J. van Dam, D. Wang, T. L. Windus,
        J. Hammond, J. Autschbach, K. Bhaskaran-Nair, J. Brabec, K. Lopata,
    S. A. Fischer, S. Krishnamoorthy, M. Jacquelin, W. Ma, M. Klemm, O. Villa,
      Y. Chen, V. Anisimov, F. Aquino, S. Hirata, M. T. Hackler, V. Konjkov,
            D. Mejia-Rodriguez, T. Risthaus, M. Malagoli, A. Marenich,
   A. Otero-de-la-Roza, J. Mullin, P. Nichols, R. Peverati, J. Pittner, Y. Zhao,
        P.-D. Fan, A. Fonari, M. J. Williamson, R. J. Harrison, J. R. Rehr,
      M. Dupuis, D. Silverstein, D. M. A. Smith, J. Nieplocha, V. Tipparaju,
    M. Krishnan, B. E. Van Kuiken, A. Vazquez-Mayagoitia, L. Jensen, M. Swart,
      Q. Wu, T. Van Voorhis, A. A. Auer, M. Nooijen, L. D. Crosby, E. Brown,
      G. Cisneros, G. I. Fann, H. Fruchtl, J. Garza, K. Hirao, R. A. Kendall,
      J. A. Nichols, K. Tsemekhman, K. Wolinski, J. Anchell, D. E. Bernholdt,
      P. Borowski, T. Clark, D. Clerc, H. Dachsel, M. J. O. Deegan, K. Dyall,
    D. Elwood, E. Glendening, M. Gutowski, A. C. Hess, J. Jaffe, B. G. Johnson,
     J. Ju, R. Kobayashi, R. Kutteh, Z. Lin, R. Littlefield, X. Long, B. Meng,
      T. Nakajima, S. Niu, L. Pollack, M. Rosing, K. Glaesemann, G. Sandrone,
      M. Stave, H. Taylor, G. Thomas, J. H. van Lenthe, A. T. Wong, Z. Zhang.

 Total times  cpu:      748.7s     wall:      753.5s
