 argument  1 = Li2-10_ORBITALS-ccpVTZ-4_67775.nw
  NWChem w/ OpenMP: maximum threads =    1



============================== echo of input deck ==============================
title "Li2-REMOVE"
echo
start Li2-REMOVE

memory total 24 gb

geometry  units angstrom
symmetry c1
Li  0    0    0
Li  0    0    4.67775
end

basis spherical
   * library cc-pvtz
end

scf
thresh 1.0e-10
tol2e 1.0e-10
rhf
singlet
maxiter 200
end

tce
   ccsd
   maxiter 200
   thresh 1.e-6
   2eorb
   2emet 13
   tilesize 5
end

set tce:qducc T
set tce:nactv 7

task tce energy

================================================================================


                                         
                                         


              Northwest Computational Chemistry Package (NWChem) 6.8
              ------------------------------------------------------


                    Environmental Molecular Sciences Laboratory
                       Pacific Northwest National Laboratory
                                Richland, WA 99352

                              Copyright (c) 1994-2018
                       Pacific Northwest National Laboratory
                            Battelle Memorial Institute

             NWChem is an open-source computational chemistry package
                        distributed under the terms of the
                      Educational Community License (ECL) 2.0
             A copy of the license is included with this distribution
                              in the LICENSE.TXT file

                                  ACKNOWLEDGMENT
                                  --------------

            This software and its documentation were developed at the
            EMSL at Pacific Northwest National Laboratory, a multiprogram
            national laboratory, operated for the U.S. Department of Energy
            by Battelle under Contract Number DE-AC05-76RL01830. Support
            for this work was provided by the Department of Energy Office
            of Biological and Environmental Research, Office of Basic
            Energy Sciences, and the Office of Advanced Scientific Computing.


           Job information
           ---------------

    hostname        = WE35263ubuntu
    program         = /home/baum612/code/NWChem/nwchem/bin/LINUX64/nwchem
    date            = Mon Apr  8 23:58:29 2019

    compiled        = Thu_Apr_04_14:53:19_2019
    source          = /home/baum612/code/NWChem/nwchem
    nwchem branch   = Development
    nwchem revision = nwchem_on_git-845-ga8f432451
    ga revision     = 5.6.5
    use scalapack   = F
    input           = Li2-10_ORBITALS-ccpVTZ-4_67775.nw
    prefix          = Li2-REMOVE.
    data base       = ./Li2-REMOVE.db
    status          = startup
    nproc           =        1
    time left       =     -1s



           Memory information
           ------------------

    heap     =  805306368 doubles =   6144.0 Mbytes
    stack    =  805306365 doubles =   6144.0 Mbytes
    global   = 1610612736 doubles =  12288.0 Mbytes (distinct from heap & stack)
    total    = 3221225469 doubles =  24576.0 Mbytes
    verify   = yes
    hardfail = no 


           Directory information
           ---------------------

  0 permanent = .
  0 scratch   = .




                                NWChem Input Module
                                -------------------


                                    Li2-REMOVE
                                    ----------

 Scaling coordinates for geometry "geometry" by  1.889725989
 (inverse scale =  0.529177249)

 Turning off AUTOSYM since
 SYMMETRY directive was detected!


          ------
          auto-z
          ------
     1 autoz failed with cvr_scaling = 1.2 changing to 1.3
     2 autoz failed with cvr_scaling = 1.3 changing to 1.4
     3 autoz failed with cvr_scaling = 1.4 changing to 1.5
     4 autoz failed with cvr_scaling = 1.5 changing to 1.6
     5 autoz failed with cvr_scaling = 1.6 changing to 1.7

 AUTOZ failed to generate good internal coordinates.
 Cartesian coordinates will be used in optimizations.



                             Geometry "geometry" -> ""
                             -------------------------

 Output coordinates in angstroms (scale by  1.889725989 to convert to a.u.)

  No.       Tag          Charge          X              Y              Z
 ---- ---------------- ---------- -------------- -------------- --------------
    1 Li                   3.0000     0.00000000     0.00000000    -2.33887500
    2 Li                   3.0000     0.00000000     0.00000000     2.33887500

      Atomic Mass 
      ----------- 

      Li                 7.016000


 Effective nuclear repulsion energy (a.u.)       1.0181380452

            Nuclear Dipole moment (a.u.) 
            ----------------------------
        X                 Y               Z
 ---------------- ---------------- ----------------
     0.0000000000     0.0000000000     0.0000000000


            XYZ format geometry
            -------------------
     2
 geometry
 Li                    0.00000000     0.00000000    -2.33887500
 Li                    0.00000000     0.00000000     2.33887500



 Summary of "ao basis" -> "" (spherical)
 ------------------------------------------------------------------------------
       Tag                 Description            Shells   Functions and Types
 ---------------- ------------------------------  ------  ---------------------
 *                          cc-pvtz                   on all atoms 


                      Basis "ao basis" -> "ao basis" (spherical)
                      -----
  Li (Lithium)
  ------------
            Exponent  Coefficients 
       -------------- ---------------------------------------------------------
  1 S  5.98800000E+03  0.000133
  1 S  8.98900000E+02  0.001025
  1 S  2.05900000E+02  0.005272
  1 S  5.92400000E+01  0.020929
  1 S  1.98700000E+01  0.066340
  1 S  7.40600000E+00  0.165775
  1 S  2.93000000E+00  0.315038
  1 S  1.18900000E+00  0.393523
  1 S  4.79800000E-01  0.190870

  2 S  5.98800000E+03 -0.000021
  2 S  8.98900000E+02 -0.000161
  2 S  2.05900000E+02 -0.000820
  2 S  5.92400000E+01 -0.003326
  2 S  1.98700000E+01 -0.010519
  2 S  7.40600000E+00 -0.028097
  2 S  2.93000000E+00 -0.055936
  2 S  1.18900000E+00 -0.099237
  2 S  4.79800000E-01 -0.112189

  3 S  7.50900000E-02  1.000000

  4 S  2.83200000E-02  1.000000

  5 P  3.26600000E+00  0.008630
  5 P  6.51100000E-01  0.047538
  5 P  1.69600000E-01  0.209772

  6 P  5.57800000E-02  1.000000

  7 P  2.05000000E-02  1.000000

  8 D  1.87400000E-01  1.000000

  9 D  8.01000000E-02  1.000000

 10 F  1.82900000E-01  1.000000



 Summary of "ao basis" -> "ao basis" (spherical)
 ------------------------------------------------------------------------------
       Tag                 Description            Shells   Functions and Types
 ---------------- ------------------------------  ------  ---------------------
 Li                         cc-pvtz                 10       30   4s3p2d1f


                                 NWChem SCF Module
                                 -----------------


                                    Li2-REMOVE



  ao basis        = "ao basis"
  functions       =    60
  atoms           =     2
  closed shells   =     3
  open shells     =     0
  charge          =   0.00
  wavefunction    = RHF 
  input vectors   = atomic
  output vectors  = ./Li2-REMOVE.movecs
  use symmetry    = F
  symmetry adapt  = F


 Summary of "ao basis" -> "ao basis" (spherical)
 ------------------------------------------------------------------------------
       Tag                 Description            Shells   Functions and Types
 ---------------- ------------------------------  ------  ---------------------
 Li                         cc-pvtz                 10       30   4s3p2d1f



 Forming initial guess at       0.1s


      Superposition of Atomic Density Guess
      -------------------------------------

 Sum of atomic energies:         -14.86535760

      Non-variational initial energy
      ------------------------------

 Total energy =     -14.754074
 1-e energy   =     -21.462894
 2-e energy   =       5.690682
 HOMO         =      -0.108286
 LUMO         =      -0.057319


 Starting SCF solution at       0.1s



 ----------------------------------------------
         Quadratically convergent ROHF

 Convergence threshold     :          1.000E-10
 Maximum no. of iterations :          200
 Final Fock-matrix accuracy:          1.000E-10
 ----------------------------------------------


 Integral file          = ./Li2-REMOVE.aoints.0
 Record size in doubles =    65536    No. of integs per rec  =    43688
 Max. records in memory =       54    Max. records in file   =  1545288
 No. of bits per label  =        8    No. of bits per value  =       64


 #quartets = 2.182D+04 #integrals = 3.699D+05 #direct =  0.0% #cached =100.0%


              iter       energy          gnorm     gmax       time
             ----- ------------------- --------- --------- --------
                 1      -14.8357640075  4.40D-02  2.85D-02      0.3
                 2      -14.8371551622  1.93D-03  1.17D-03      0.4
                 3      -14.8371574553  2.04D-06  1.56D-06      0.4
                 4      -14.8371574553  2.30D-11  1.90D-11      0.4


       Final RHF  results 
       ------------------ 

         Total SCF energy =    -14.837157455311
      One-electron energy =    -21.425392670846
      Two-electron energy =      5.570097170322
 Nuclear repulsion energy =      1.018138045213

        Time for solution =      0.3s


             Final eigenvalues
             -----------------

              1      
    1   -2.4965
    2   -2.4965
    3   -0.1496
    4   -0.0199
    5    0.0268
    6    0.0268
    7    0.0301
    8    0.0454
    9    0.0454
   10    0.0547
   11    0.1133
   12    0.1236
   13    0.1236

                       ROHF Final Molecular Orbital Analysis
                       -------------------------------------

 Vector    2  Occ=2.000000D+00  E=-2.496477D+00
              MO Center= -6.8D-20,  4.8D-19, -9.4D-06, r^2= 5.6D+00
   Bfn.  Coefficient  Atom+Function         Bfn.  Coefficient  Atom+Function  
  ----- ------------  ---------------      ----- ------------  ---------------
     1      0.706849  1 Li s                 31     -0.706846  2 Li s          

 Vector    3  Occ=2.000000D+00  E=-1.496441D-01
              MO Center= -1.8D-15,  1.2D-15, -1.2D-14, r^2= 8.9D+00
   Bfn.  Coefficient  Atom+Function         Bfn.  Coefficient  Atom+Function  
  ----- ------------  ---------------      ----- ------------  ---------------
     4      0.427693  1 Li s                 34      0.427693  2 Li s          
     3      0.227122  1 Li s                 33      0.227122  2 Li s          

 Vector    4  Occ=0.000000D+00  E=-1.991630D-02
              MO Center=  7.3D-16, -4.2D-16,  3.5D-14, r^2= 1.9D+01
   Bfn.  Coefficient  Atom+Function         Bfn.  Coefficient  Atom+Function  
  ----- ------------  ---------------      ----- ------------  ---------------
     4      0.388722  1 Li s                 34     -0.388722  2 Li s          
    13     -0.297628  1 Li pz                43     -0.297628  2 Li pz         
     3      0.202461  1 Li s                 33     -0.202461  2 Li s          

 Vector    5  Occ=0.000000D+00  E= 2.680022D-02
              MO Center=  6.0D-15, -9.6D-16,  2.3D-13, r^2= 2.0D+01
   Bfn.  Coefficient  Atom+Function         Bfn.  Coefficient  Atom+Function  
  ----- ------------  ---------------      ----- ------------  ---------------
    11      0.560626  1 Li px                41      0.560626  2 Li px         

 Vector    6  Occ=0.000000D+00  E= 2.680022D-02
              MO Center= -1.7D-15, -1.2D-14,  1.6D-13, r^2= 2.0D+01
   Bfn.  Coefficient  Atom+Function         Bfn.  Coefficient  Atom+Function  
  ----- ------------  ---------------      ----- ------------  ---------------
    12      0.560626  1 Li py                42      0.560626  2 Li py         

 Vector    7  Occ=0.000000D+00  E= 3.014272D-02
              MO Center= -3.5D-16,  9.8D-15,  8.7D-13, r^2= 2.6D+01
   Bfn.  Coefficient  Atom+Function         Bfn.  Coefficient  Atom+Function  
  ----- ------------  ---------------      ----- ------------  ---------------
    13      0.637863  1 Li pz                43     -0.637863  2 Li pz         
     4     -0.429620  1 Li s                 34     -0.429620  2 Li s          

 Vector    8  Occ=0.000000D+00  E= 4.536302D-02
              MO Center= -2.6D-15, -2.5D-15, -1.9D-13, r^2= 2.7D+01
   Bfn.  Coefficient  Atom+Function         Bfn.  Coefficient  Atom+Function  
  ----- ------------  ---------------      ----- ------------  ---------------
    11      0.817001  1 Li px                41     -0.817001  2 Li px         
    12      0.538857  1 Li py                42     -0.538857  2 Li py         

 Vector    9  Occ=0.000000D+00  E= 4.536302D-02
              MO Center=  4.7D-15, -5.1D-15, -2.2D-13, r^2= 2.7D+01
   Bfn.  Coefficient  Atom+Function         Bfn.  Coefficient  Atom+Function  
  ----- ------------  ---------------      ----- ------------  ---------------
    12      0.817001  1 Li py                42     -0.817001  2 Li py         
    11     -0.538857  1 Li px                41      0.538857  2 Li px         

 Vector   10  Occ=0.000000D+00  E= 5.468283D-02
              MO Center= -2.9D-17,  9.2D-15, -3.6D-13, r^2= 3.9D+01
   Bfn.  Coefficient  Atom+Function         Bfn.  Coefficient  Atom+Function  
  ----- ------------  ---------------      ----- ------------  ---------------
    13      1.609463  1 Li pz                43      1.609463  2 Li pz         
     4      1.479460  1 Li s                 34     -1.479460  2 Li s          
    10     -0.222319  1 Li pz                40     -0.222319  2 Li pz         

 Vector   11  Occ=0.000000D+00  E= 1.133019D-01
              MO Center=  5.0D-16,  2.1D-16, -1.0D-13, r^2= 2.4D+01
   Bfn.  Coefficient  Atom+Function         Bfn.  Coefficient  Atom+Function  
  ----- ------------  ---------------      ----- ------------  ---------------
    10      0.948523  1 Li pz                40     -0.948523  2 Li pz         
    13     -0.941677  1 Li pz                43      0.941677  2 Li pz         
     4      0.262072  1 Li s                 34      0.262072  2 Li s          

 Vector   12  Occ=0.000000D+00  E= 1.236006D-01
              MO Center=  3.3D-16, -7.5D-17, -8.4D-14, r^2= 1.8D+01
   Bfn.  Coefficient  Atom+Function         Bfn.  Coefficient  Atom+Function  
  ----- ------------  ---------------      ----- ------------  ---------------
     8      0.858760  1 Li px                38      0.858760  2 Li px         
    11     -0.631256  1 Li px                41     -0.631256  2 Li px         
     9     -0.439791  1 Li py                39     -0.439791  2 Li py         
    12      0.323281  1 Li py                42      0.323281  2 Li py         

 Vector   13  Occ=0.000000D+00  E= 1.236006D-01
              MO Center=  6.9D-16,  1.5D-15, -1.9D-14, r^2= 1.8D+01
   Bfn.  Coefficient  Atom+Function         Bfn.  Coefficient  Atom+Function  
  ----- ------------  ---------------      ----- ------------  ---------------
     9      0.858760  1 Li py                39      0.858760  2 Li py         
    12     -0.631256  1 Li py                42     -0.631256  2 Li py         
     8      0.439791  1 Li px                38      0.439791  2 Li px         
    11     -0.323281  1 Li px                41     -0.323281  2 Li px         

 Vector   14  Occ=0.000000D+00  E= 1.334835D-01
              MO Center= -1.8D-16,  1.2D-15,  7.4D-14, r^2= 2.0D+01
   Bfn.  Coefficient  Atom+Function         Bfn.  Coefficient  Atom+Function  
  ----- ------------  ---------------      ----- ------------  ---------------
    11     -0.778946  1 Li px                41      0.778946  2 Li px         
     8      0.772043  1 Li px                38     -0.772043  2 Li px         
    12      0.637249  1 Li py                42     -0.637249  2 Li py         
     9     -0.631602  1 Li py                39      0.631602  2 Li py         

 Vector   15  Occ=0.000000D+00  E= 1.334835D-01
              MO Center=  9.0D-16, -3.8D-16,  2.6D-14, r^2= 2.0D+01
   Bfn.  Coefficient  Atom+Function         Bfn.  Coefficient  Atom+Function  
  ----- ------------  ---------------      ----- ------------  ---------------
    12     -0.778946  1 Li py                42      0.778946  2 Li py         
     9      0.772043  1 Li py                39     -0.772043  2 Li py         
    11     -0.637249  1 Li px                41      0.637249  2 Li px         
     8      0.631602  1 Li px                38     -0.631602  2 Li px         

 Vector   16  Occ=0.000000D+00  E= 1.432434D-01
              MO Center=  3.0D-16,  1.1D-15, -8.7D-13, r^2= 1.6D+01
   Bfn.  Coefficient  Atom+Function         Bfn.  Coefficient  Atom+Function  
  ----- ------------  ---------------      ----- ------------  ---------------
    10      0.855059  1 Li pz                40      0.855059  2 Li pz         
    13     -0.496811  1 Li pz                43     -0.496811  2 Li pz         
    21     -0.239148  1 Li d  0              51      0.239148  2 Li d  0       
     4      0.207890  1 Li s                 34     -0.207890  2 Li s          
     3     -0.196886  1 Li s                 33      0.196886  2 Li s          

 Vector   17  Occ=0.000000D+00  E= 1.484956D-01
              MO Center= -3.6D-15, -1.7D-15,  2.0D-13, r^2= 1.4D+01
   Bfn.  Coefficient  Atom+Function         Bfn.  Coefficient  Atom+Function  
  ----- ------------  ---------------      ----- ------------  ---------------
     3      1.369889  1 Li s                 33      1.369889  2 Li s          
     4     -1.066034  1 Li s                 34     -1.066034  2 Li s          
     2      0.340759  1 Li s                 32      0.340759  2 Li s          
    21      0.172993  1 Li d  0              51      0.172993  2 Li d  0       

 Vector   18  Occ=0.000000D+00  E= 1.941334D-01
              MO Center=  2.4D-16, -1.8D-15,  2.2D-13, r^2= 1.8D+01
   Bfn.  Coefficient  Atom+Function         Bfn.  Coefficient  Atom+Function  
  ----- ------------  ---------------      ----- ------------  ---------------
     4      2.860965  1 Li s                 34     -2.860965  2 Li s          
     3     -1.898089  1 Li s                 33      1.898089  2 Li s          
    13      1.182007  1 Li pz                43      1.182007  2 Li pz         
     2     -0.382831  1 Li s                 32      0.382831  2 Li s          

 Vector   19  Occ=0.000000D+00  E= 2.095233D-01
              MO Center=  2.4D-16,  3.1D-16, -2.1D-14, r^2= 1.2D+01
   Bfn.  Coefficient  Atom+Function         Bfn.  Coefficient  Atom+Function  
  ----- ------------  ---------------      ----- ------------  ---------------
    20      0.719398  1 Li d -1              50     -0.719398  2 Li d -1       

 Vector   20  Occ=0.000000D+00  E= 2.095233D-01
              MO Center= -2.0D-15, -7.6D-17, -1.7D-14, r^2= 1.2D+01
   Bfn.  Coefficient  Atom+Function         Bfn.  Coefficient  Atom+Function  
  ----- ------------  ---------------      ----- ------------  ---------------
    22      0.719398  1 Li d  1              52     -0.719398  2 Li d  1       

 Vector   21  Occ=0.000000D+00  E= 2.198282D-01
              MO Center= -6.9D-16, -2.4D-16,  8.7D-14, r^2= 1.2D+01
   Bfn.  Coefficient  Atom+Function         Bfn.  Coefficient  Atom+Function  
  ----- ------------  ---------------      ----- ------------  ---------------
    19      0.603668  1 Li d -2              49      0.603668  2 Li d -2       
    23      0.522494  1 Li d  2              53      0.522494  2 Li d  2       

 Vector   22  Occ=0.000000D+00  E= 2.198282D-01
              MO Center= -1.2D-15, -7.0D-16,  1.2D-13, r^2= 1.2D+01
   Bfn.  Coefficient  Atom+Function         Bfn.  Coefficient  Atom+Function  
  ----- ------------  ---------------      ----- ------------  ---------------
    23      0.603668  1 Li d  2              53      0.603668  2 Li d  2       
    19     -0.522494  1 Li d -2              49     -0.522494  2 Li d -2       

 Vector   23  Occ=0.000000D+00  E= 2.406834D-01
              MO Center= -5.1D-16, -3.7D-15, -1.1D-13, r^2= 1.3D+01
   Bfn.  Coefficient  Atom+Function         Bfn.  Coefficient  Atom+Function  
  ----- ------------  ---------------      ----- ------------  ---------------
    23      0.690916  1 Li d  2              53     -0.690916  2 Li d  2       
    19      0.462730  1 Li d -2              49     -0.462730  2 Li d -2       

 Vector   24  Occ=0.000000D+00  E= 2.406834D-01
              MO Center=  6.3D-17, -6.5D-16, -1.0D-13, r^2= 1.3D+01
   Bfn.  Coefficient  Atom+Function         Bfn.  Coefficient  Atom+Function  
  ----- ------------  ---------------      ----- ------------  ---------------
    19      0.690916  1 Li d -2              49     -0.690916  2 Li d -2       
    23     -0.462730  1 Li d  2              53      0.462730  2 Li d  2       

 Vector   25  Occ=0.000000D+00  E= 2.618261D-01
              MO Center=  1.3D-15,  5.2D-16,  1.1D-13, r^2= 1.4D+01
   Bfn.  Coefficient  Atom+Function         Bfn.  Coefficient  Atom+Function  
  ----- ------------  ---------------      ----- ------------  ---------------
    21      0.735352  1 Li d  0              51      0.735352  2 Li d  0       
     3     -0.492100  1 Li s                 33     -0.492100  2 Li s          
    10     -0.426226  1 Li pz                40      0.426226  2 Li pz         
    13      0.385868  1 Li pz                43     -0.385868  2 Li pz         
     4      0.208410  1 Li s                 34      0.208410  2 Li s          

 Vector   26  Occ=0.000000D+00  E= 2.881398D-01
              MO Center=  1.7D-16,  1.9D-16,  4.8D-14, r^2= 1.4D+01
   Bfn.  Coefficient  Atom+Function         Bfn.  Coefficient  Atom+Function  
  ----- ------------  ---------------      ----- ------------  ---------------
    20      0.869850  1 Li d -1              50      0.869850  2 Li d -1       
    22     -0.387901  1 Li d  1              52     -0.387901  2 Li d  1       
    12      0.228417  1 Li py                42     -0.228417  2 Li py         

 Vector   27  Occ=0.000000D+00  E= 2.881398D-01
              MO Center= -3.5D-17, -9.1D-17,  5.0D-14, r^2= 1.4D+01
   Bfn.  Coefficient  Atom+Function         Bfn.  Coefficient  Atom+Function  
  ----- ------------  ---------------      ----- ------------  ---------------
    22      0.869850  1 Li d  1              52      0.869850  2 Li d  1       
    20      0.387901  1 Li d -1              50      0.387901  2 Li d -1       
    11     -0.228417  1 Li px                41      0.228417  2 Li px         

 Vector   28  Occ=0.000000D+00  E= 3.391913D-01
              MO Center=  1.2D-16, -9.6D-17,  4.8D-13, r^2= 1.5D+01
   Bfn.  Coefficient  Atom+Function         Bfn.  Coefficient  Atom+Function  
  ----- ------------  ---------------      ----- ------------  ---------------
     4      1.821727  1 Li s                 34     -1.821727  2 Li s          
    21      1.167153  1 Li d  0              51     -1.167153  2 Li d  0       
    13      0.809536  1 Li pz                43      0.809536  2 Li pz         
     3     -0.658071  1 Li s                 33      0.658071  2 Li s          
    10      0.350503  1 Li pz                40      0.350503  2 Li pz         

 Vector   29  Occ=0.000000D+00  E= 4.468531D-01
              MO Center=  3.7D-17,  4.1D-16,  1.2D-11, r^2= 1.1D+01
   Bfn.  Coefficient  Atom+Function         Bfn.  Coefficient  Atom+Function  
  ----- ------------  ---------------      ----- ------------  ---------------
     8     -0.930877  1 Li px                38     -0.930877  2 Li px         
     5      0.909849  1 Li px                35      0.909849  2 Li px         
     9      0.380170  1 Li py                39      0.380170  2 Li py         
     6     -0.371582  1 Li py                36     -0.371582  2 Li py         
    11      0.361794  1 Li px                41      0.361794  2 Li px         

 Vector   30  Occ=0.000000D+00  E= 4.468531D-01
              MO Center= -4.1D-16, -3.4D-16,  1.1D-11, r^2= 1.1D+01
   Bfn.  Coefficient  Atom+Function         Bfn.  Coefficient  Atom+Function  
  ----- ------------  ---------------      ----- ------------  ---------------
     9     -0.930877  1 Li py                39     -0.930877  2 Li py         
     6      0.909849  1 Li py                36      0.909849  2 Li py         
     8     -0.380170  1 Li px                38     -0.380170  2 Li px         
     5      0.371582  1 Li px                35      0.371582  2 Li px         
    12      0.361794  1 Li py                42      0.361794  2 Li py         

 Vector   31  Occ=0.000000D+00  E= 4.647123D-01
              MO Center= -5.3D-16,  9.7D-16, -1.2D-11, r^2= 1.1D+01
   Bfn.  Coefficient  Atom+Function         Bfn.  Coefficient  Atom+Function  
  ----- ------------  ---------------      ----- ------------  ---------------
     9      0.994376  1 Li py                39     -0.994376  2 Li py         
     6     -0.882258  1 Li py                36      0.882258  2 Li py         
     8     -0.526569  1 Li px                38      0.526569  2 Li px         
    12     -0.496481  1 Li py                42      0.496481  2 Li py         
     5      0.467197  1 Li px                35     -0.467197  2 Li px         

 Vector   32  Occ=0.000000D+00  E= 4.647123D-01
              MO Center= -1.1D-15, -2.4D-16, -1.2D-11, r^2= 1.1D+01
   Bfn.  Coefficient  Atom+Function         Bfn.  Coefficient  Atom+Function  
  ----- ------------  ---------------      ----- ------------  ---------------
     8      0.994376  1 Li px                38     -0.994376  2 Li px         
     5     -0.882258  1 Li px                35      0.882258  2 Li px         
     9      0.526569  1 Li py                39     -0.526569  2 Li py         
    11     -0.496481  1 Li px                41      0.496481  2 Li px         
     6     -0.467197  1 Li py                36      0.467197  2 Li py         

 Vector   33  Occ=0.000000D+00  E= 4.686005D-01
              MO Center= -4.9D-16, -1.5D-15,  3.1D-12, r^2= 1.1D+01
   Bfn.  Coefficient  Atom+Function         Bfn.  Coefficient  Atom+Function  
  ----- ------------  ---------------      ----- ------------  ---------------
     7      0.985282  1 Li pz                37     -0.985282  2 Li pz         
    10     -0.976911  1 Li pz                40      0.976911  2 Li pz         
    13      0.465025  1 Li pz                43     -0.465025  2 Li pz         

 Vector   34  Occ=0.000000D+00  E= 5.196334D-01
              MO Center=  8.9D-18,  4.1D-16, -3.8D-12, r^2= 1.1D+01
   Bfn.  Coefficient  Atom+Function         Bfn.  Coefficient  Atom+Function  
  ----- ------------  ---------------      ----- ------------  ---------------
    10      1.654376  1 Li pz                40      1.654376  2 Li pz         
     4      1.050647  1 Li s                 34     -1.050647  2 Li s          
     7     -0.975948  1 Li pz                37     -0.975948  2 Li pz         
    21      0.660083  1 Li d  0              51     -0.660083  2 Li d  0       
     3     -0.359795  1 Li s                 33      0.359795  2 Li s          


 center of mass
 --------------
 x =   0.00000000 y =   0.00000000 z =   0.00000000

 moments of inertia (a.u.)
 ------------------
         274.114034096439           0.000000000000           0.000000000000
           0.000000000000         274.114034096439           0.000000000000
           0.000000000000           0.000000000000           0.000000000000

  Mulliken analysis of the total density
  --------------------------------------

    Atom       Charge   Shell Charges
 -----------   ------   -------------------------------------------------------
    1 Li   3     3.00   2.00 -0.01  0.29  0.68  0.00  0.02  0.02  0.00  0.00  0.00
    2 Li   3     3.00   2.00 -0.01  0.29  0.68  0.00  0.02  0.02  0.00  0.00  0.00

       Multipole analysis of the density wrt the origin
       ------------------------------------------------

     L   x y z        total         open         nuclear
     -   - - -        -----         ----         -------
     0   0 0 0     -0.000000      0.000000      6.000000

     1   1 0 0      0.000000      0.000000      0.000000
     1   0 1 0     -0.000000      0.000000      0.000000
     1   0 0 1     -0.000000      0.000000      0.000000

     2   2 0 0    -14.565193      0.000000      0.000000
     2   1 1 0     -0.000000      0.000000      0.000000
     2   1 0 1      0.000000      0.000000      0.000000
     2   0 2 0    -14.565193      0.000000      0.000000
     2   0 1 1      0.000000      0.000000      0.000000
     2   0 0 2      2.660190      0.000000    117.209536


 Parallel integral file used       9 records with       0 large values

                   NWChem Extensible Many-Electron Theory Module
                   ---------------------------------------------

              ======================================================
                   This portion of the program was automatically
                  generated by a Tensor Contraction Engine (TCE).
                  The development of this portion of the program
                 and TCE was supported by US Department of Energy,
                Office of Science, Office of Basic Energy Science.
                      TCE is a product of Battelle and PNNL.
              Please cite: S.Hirata, J.Phys.Chem.A 107, 9887 (2003).
              ======================================================

                                    Li2-REMOVE


            General Information
            -------------------
      Number of processors :     1
         Wavefunction type : Restricted Hartree-Fock
          No. of electrons :     6
           Alpha electrons :     3
            Beta electrons :     3
           No. of orbitals :   120
            Alpha orbitals :    60
             Beta orbitals :    60
        Alpha frozen cores :     0
         Beta frozen cores :     0
     Alpha frozen virtuals :     0
      Beta frozen virtuals :     0
         Spin multiplicity : singlet 
    Number of AO functions :    60
       Number of AO shells :    20
        Use of symmetry is : off
      Symmetry adaption is : off
         Schwarz screening : 0.10D-09

          Correlation Information
          -----------------------
          Calculation type : Coupled-cluster singles & doubles                           
   Perturbative correction : none                                                        
            Max iterations :      200
        Residual threshold : 0.10D-05
     T(0) DIIS level shift : 0.00D+00
     L(0) DIIS level shift : 0.00D+00
     T(1) DIIS level shift : 0.00D+00
     L(1) DIIS level shift : 0.00D+00
     T(R) DIIS level shift : 0.00D+00
     T(I) DIIS level shift : 0.00D+00
   CC-T/L Amplitude update :  5-th order DIIS
                I/O scheme : Global Array Library
        L-threshold :  0.10D-05
        EOM-threshold :  0.10D-05
 no EOMCCSD initial starts read in
 TCE RESTART OPTIONS
 READ_INT:   F
 WRITE_INT:  F
 READ_TA:    F
 WRITE_TA:   F
 READ_XA:    F
 WRITE_XA:   F
 READ_IN3:   F
 WRITE_IN3:  F
 SLICE:      F
 D4D5:       F
 quantumc:   F
 qrotation:  F
 qducc:      T
 nacto:                         0
 nrotv:                         0
 nrot:                          0

            Memory Information
            ------------------
          Available GA space size is    1610609136 doubles
          Available MA space size is    1610610012 doubles

 Maximum block size supplied by input
 Maximum block size         5 doubles

 tile_dim =      5

 Block   Spin    Irrep     Size     Offset   Alpha
 -------------------------------------------------
   1    alpha     a      3 doubles       0       1
   2    beta      a      3 doubles       3       1
   3    alpha     a      4 doubles       6       3
   4    alpha     a      5 doubles      10       4
   5    alpha     a      5 doubles      15       5
   6    alpha     a      5 doubles      20       6
   7    alpha     a      4 doubles      25       7
   8    alpha     a      5 doubles      29       8
   9    alpha     a      5 doubles      34       9
  10    alpha     a      5 doubles      39      10
  11    alpha     a      4 doubles      44      11
  12    alpha     a      5 doubles      48      12
  13    alpha     a      5 doubles      53      13
  14    alpha     a      5 doubles      58      14
  15    beta      a      4 doubles      63       3
  16    beta      a      5 doubles      67       4
  17    beta      a      5 doubles      72       5
  18    beta      a      5 doubles      77       6
  19    beta      a      4 doubles      82       7
  20    beta      a      5 doubles      86       8
  21    beta      a      5 doubles      91       9
  22    beta      a      5 doubles      96      10
  23    beta      a      4 doubles     101      11
  24    beta      a      5 doubles     105      12
  25    beta      a      5 doubles     110      13
  26    beta      a      5 doubles     115      14

 Global array virtual files algorithm will be used

 Parallel file system coherency ......... OK

 Integral file          = ./Li2-REMOVE.aoints.0
 Record size in doubles =    65536    No. of integs per rec  =    43688
 Max. records in memory =       54    Max. records in file   =  1545288
 No. of bits per label  =        8    No. of bits per value  =       64


 #quartets = 2.182D+04 #integrals = 3.699D+05 #direct =  0.0% #cached =100.0%


 Fock matrix recomputed
 1-e file size   =             3600
 1-e file name   = ./Li2-REMOVE.f1
 Cpu & wall time / sec            0.2            0.2
 4-electron integrals stored in orbital form

 v2    file size   =          1905240
 4-index algorithm nr.  13 is used
 imaxsize =       30
 imaxsize ichop =        0
 Cpu & wall time / sec            4.6            4.6
 T1-number-of-tasks                   12

 t1 file size   =              171
 t1 file name   = ./Li2-REMOVE.t1
 t1 file handle =       -998
 T2-number-of-boxes                  222

 t2 file size   =            45090
 t2 file name   = ./Li2-REMOVE.t2
 t2 file handle =       -996

 CCSD iterations
 -----------------------------------------------------------------
 Iter          Residuum       Correlation     Cpu    Wall    V2*C2
 -----------------------------------------------------------------
    1   0.0888834857983  -0.0447861456169     1.8     2.0     0.5
    2   0.0264350416760  -0.0530821681756     1.8     2.0     0.5
    3   0.0155130862789  -0.0572280765436     1.8     2.0     0.5
    4   0.0105993422555  -0.0591209871408     1.8     2.0     0.6
    5   0.0074356282713  -0.0603809816878     1.8     2.0     0.5
 MICROCYCLE DIIS UPDATE:                    5                    5
    6   0.0016530091612  -0.0627389249698     1.9     2.0     0.6
    7   0.0010225823518  -0.0628109024581     1.8     2.0     0.5
    8   0.0006594581074  -0.0628406129646     1.8     2.0     0.5
    9   0.0004978126179  -0.0628633574086     1.8     2.0     0.5
   10   0.0003614633501  -0.0628868036594     1.8     2.0     0.5
 MICROCYCLE DIIS UPDATE:                   10                    5
   11   0.0000742374567  -0.0629509989103     1.9     2.0     0.5
   12   0.0000400881546  -0.0629560066977     1.9     2.0     0.6
   13   0.0000248470678  -0.0629610059756     1.8     2.0     0.6
   14   0.0000165212979  -0.0629633065832     1.8     2.0     0.5
   15   0.0000111454798  -0.0629650390884     1.9     2.0     0.5
 MICROCYCLE DIIS UPDATE:                   15                    5
   16   0.0000027286766  -0.0629682079102     1.8     2.0     0.5
   17   0.0000017065667  -0.0629683048856     1.8     2.0     0.5
   18   0.0000010937767  -0.0629683771736     1.8     1.9     0.5
   19   0.0000008193124  -0.0629684196941     1.9     2.0     0.6
 -----------------------------------------------------------------
 Iterations converged
 CCSD correlation energy / hartree =        -0.062968419694069
 CCSD total energy / hartree       =       -14.900125875004598

 Singles contributions

 Doubles contributions
     4a   (alpha)     4a   (beta ) ---     3a   (alpha)     3a   (beta )       -0.3967705986
     4a   (alpha)    10a   (beta ) ---     3a   (alpha)     3a   (beta )       -0.1480131248
    10a   (alpha)     4a   (beta ) ---     3a   (alpha)     3a   (beta )       -0.1480131248
 Ground state specification:
 exp(T)|Ref>~(1+T)|Ref>
 ------- a(p)+/a(q) strings ----------

 singles norm

 doubles norm

 Reference string
  0.91239862734140886      :(1a)+ (2a)+ (3a)+ (1b)+ (2b)+ (3b)+ |0>

 Singles strings

 Doubles strings
 -0.36201294949104701      :(4a)+ (4b)+ (3b)  (3a)  (1a)+ (2a)+ (3a)+ (1b)+ (2b)+ (3b)+ |0>
 -0.13504697187702086      :(4a)+ (10b)+(3b)  (3a)  (1a)+ (2a)+ (3a)+ (1b)+ (2b)+ (3b)+ |0>
 -0.13504697187702080      :(10a)+(4b)+ (3b)  (3a)  (1a)+ (2a)+ (3a)+ (1b)+ (2b)+ (3b)+ |0>
 -------------------------------------
 enrep_tce =    1.0181380452134645     
  EHF(total)         =       -14.83715746
  Shift (HFtot-HFA)  =         0.00000000
 ALL OCCUPIED ORBITALS ARE ACTIVE IN DUCC --> NO SHIFT
 Number of active orbitals                   10
 Number of active alpha electrons                    3
 Number of active beta electrons                    3
  nos                     6
  nvs                   114
 noas                     3
 nobs                     3
 nvas                    57
 nvbs                    57
 nactv                     7
 From DUCC CCSD corr. ene.  -6.2968419694172398E-002
 From DUCC CCSD corr. ene.-e-part   5.3229954701517548E-002
 begin_one_electron_integrals
    1    1        -4.7810581044
    1    3         0.1127125127
    1    4        -0.0000001906
    1    7        -0.0077732743
    1   10        -0.0000001274
    2    2        -4.7810769565
    2    3         0.0000002259
    2    4         0.0951198248
    2    7        -0.0000000156
    2   10         0.0635948464
    3    1         0.1127125127
    3    2         0.0000002259
    3    3        -1.1783131296
    3    7        -0.0643726975
    4    1        -0.0000001906
    4    2         0.0951198248
    4    4        -0.9693029197
    4   10        -0.2256196903
    5    5        -0.7510933833
    6    6        -0.7510933833
    7    1        -0.0077732743
    7    2        -0.0000000156
    7    3        -0.0643726975
    7    7        -0.7630754779
    8    8        -0.6620623518
    9    9        -0.6620623518
   10    1        -0.0000001274
   10    2         0.0635948464
   10    4        -0.2256196903
   10   10        -0.6277703607
 end_one_electron_integrals
 begin_two_electron_integrals
    1    1    1    1        0.8750076492
    2    1    1    1       -0.0000030535
    2    2    1    1        0.8750146092
    2    1    2    1        0.7619172862
    2    2    2    1        0.0000030534
    2    2    2    2        0.8750247447
    3    1    1    1       -0.0554889333
    3    2    1    1        0.0000001119
    3    3    1    1        0.2152754856
    3    1    2    1        0.0000001115
    3    1    2    2       -0.0554895389
    3    2    2    1       -0.0556655975
    3    2    2    2       -0.0000003343
    3    3    2    2        0.2152745319
    3    1    3    1        0.0046065351
    3    2    3    2        0.0046079925
    3    3    3    1       -0.0011960611
    3    3    3    2       -0.0000000024
    3    3    3    3        0.1798025098
    4    1    1    1        0.0000002868
    4    2    1    1       -0.0479152131
    4    3    1    1       -0.0000003090
    4    4    1    1        0.1784705338
    4    1    2    1       -0.0475986736
    4    1    2    2       -0.0000000947
    4    2    2    1       -0.0000000954
    4    2    2    2       -0.0479144871
    4    3    2    1        0.0771003213
    4    3    2    2        0.0000003090
    4    4    2    2        0.1784707796
    4    1    3    1       -0.0000000205
    4    1    3    2        0.0051061282
    4    1    3    3        0.0000000034
    4    2    3    1        0.0051053171
    4    2    3    2        0.0000000205
    4    2    3    3       -0.0016808970
    4    3    3    1        0.0000000025
    4    3    3    2       -0.0012657969
    4    4    3    1       -0.0008929843
    4    4    3    2       -0.0000000018
    4    4    3    3        0.1437219783
    4    1    4    1        0.0055479936
    4    2    4    2        0.0055489618
    4    3    4    1       -0.0011283323
    4    3    4    2       -0.0000000023
    4    3    4    3        0.0432158474
    4    4    4    1        0.0000000009
    4    4    4    2       -0.0004632400
    4    4    4    4        0.1410662070
    5    5    1    1        0.1342169498
    5    5    2    2        0.1342170125
    5    5    3    1       -0.0000158988
    5    5    3    3        0.1298153058
    5    5    4    1        0.0000000003
    5    5    4    2       -0.0001637698
    5    5    4    4        0.1136317853
    5    1    5    1        0.0003612435
    5    2    5    2        0.0003575516
    5    3    5    1        0.0008186843
    5    3    5    2        0.0000000016
    5    3    5    3        0.0178073325
    5    4    5    1       -0.0000000011
    5    4    5    2        0.0005699980
    5    4    5    4        0.0094998442
    5    5    5    5        0.1170124916
    6    6    1    1        0.1342169498
    6    6    2    2        0.1342170125
    6    6    3    1       -0.0000158988
    6    6    3    3        0.1298153058
    6    6    4    1        0.0000000003
    6    6    4    2       -0.0001637698
    6    6    4    4        0.1136317853
    6    6    5    5        0.1060183018
    6    1    6    1        0.0003612435
    6    2    6    2        0.0003575516
    6    3    6    1        0.0008186843
    6    3    6    2        0.0000000016
    6    3    6    3        0.0178073325
    6    4    6    1       -0.0000000011
    6    4    6    2        0.0005699980
    6    4    6    4        0.0094998442
    6    5    6    5        0.0054970949
    6    6    6    6        0.1170124916
    7    1    1    1        0.0026142836
    7    2    1    1       -0.0000000024
    7    3    1    1        0.0113107454
    7    4    1    1        0.0000001490
    7    7    1    1        0.1394542617
    7    1    2    1       -0.0000000038
    7    1    2    2        0.0026153840
    7    2    2    1        0.0018977573
    7    2    2    2        0.0000000128
    7    3    2    2        0.0113099638
    7    4    2    1       -0.0371817199
    7    4    2    2       -0.0000001490
    7    7    2    2        0.1394549224
    7    1    3    1       -0.0001158900
    7    1    3    3        0.0009792117
    7    2    3    2       -0.0001180090
    7    2    3    3        0.0000000020
    7    3    3    1        0.0003016747
    7    3    3    2        0.0000000006
    7    3    3    3        0.0146358095
    7    4    3    1       -0.0000000007
    7    4    3    2        0.0003574642
    7    7    3    1       -0.0001221957
    7    7    3    2       -0.0000000002
    7    7    3    3        0.1279131102
    7    1    4    1        0.0000000016
    7    1    4    2       -0.0004037106
    7    1    4    3        0.0000000011
    7    1    4    4       -0.0004669055
    7    2    4    1       -0.0003992692
    7    2    4    2       -0.0000000016
    7    2    4    3       -0.0005554140
    7    2    4    4       -0.0000000009
    7    3    4    1        0.0000000008
    7    3    4    2       -0.0004236235
    7    3    4    4       -0.0015651137
    7    4    4    1       -0.0003548639
    7    4    4    2       -0.0000000007
    7    4    4    3       -0.0273389518
    7    7    4    2       -0.0000436028
    7    7    4    4        0.1237611088
    7    1    5    5        0.0002517769
    7    2    5    5        0.0000000005
    7    3    5    5        0.0080880240
    7    5    5    1       -0.0000195801
    7    5    5    3        0.0009655177
    7    7    5    5        0.1036592298
    7    1    6    6        0.0002517769
    7    2    6    6        0.0000000005
    7    3    6    6        0.0080880240
    7    6    6    1       -0.0000195801
    7    6    6    3        0.0009655177
    7    7    6    6        0.1036592298
    7    1    7    1        0.0005384870
    7    2    7    2        0.0005269960
    7    3    7    1        0.0011495133
    7    3    7    2        0.0000000023
    7    3    7    3        0.0199835258
    7    4    7    1       -0.0000000019
    7    4    7    2        0.0009666473
    7    4    7    4        0.0328693097
    7    5    7    5        0.0048516741
    7    6    7    6        0.0048516741
    7    7    7    1       -0.0000934007
    7    7    7    2       -0.0000000002
    7    7    7    3        0.0001310454
    7    7    7    7        0.1177636655
    8    5    1    1       -0.0000001130
    8    6    1    1       -0.0000001009
    8    8    1    1        0.1218458945
    8    5    2    1        0.0281927367
    8    5    2    2        0.0000001130
    8    6    2    1        0.0251684323
    8    6    2    2        0.0000001009
    8    8    2    2        0.1218458887
    8    5    3    1        0.0000000002
    8    5    3    2       -0.0001089581
    8    6    3    1        0.0000000002
    8    6    3    2       -0.0000972699
    8    8    3    1       -0.0000863633
    8    8    3    2       -0.0000000002
    8    8    3    3        0.1147631577
    8    5    4    1        0.0000452521
    8    5    4    3        0.0195753684
    8    6    4    1        0.0000403978
    8    6    4    3        0.0174754704
    8    8    4    1        0.0000000001
    8    8    4    2       -0.0000510962
    8    8    4    4        0.1100836091
    8    1    5    1       -0.0000000011
    8    1    5    2        0.0002619248
    8    1    5    3       -0.0000000011
    8    1    5    4        0.0004041832
    8    2    5    1        0.0002643412
    8    2    5    2        0.0000000011
    8    2    5    3        0.0005706998
    8    2    5    4        0.0000000008
    8    3    5    1       -0.0000000009
    8    3    5    2        0.0004694893
    8    3    5    4        0.0060845866
    8    4    5    1        0.0004773701
    8    4    5    2        0.0000000010
    8    4    5    3        0.0093606996
    8    7    5    1        0.0000000002
    8    7    5    2       -0.0001107874
    8    7    5    4       -0.0043235901
    8    8    5    5        0.1025765935
    8    1    6    1       -0.0000000009
    8    1    6    2        0.0002338275
    8    1    6    3       -0.0000000010
    8    1    6    4        0.0003608254
    8    2    6    1        0.0002359847
    8    2    6    2        0.0000000009
    8    2    6    3        0.0005094794
    8    2    6    4        0.0000000007
    8    3    6    1       -0.0000000008
    8    3    6    2        0.0004191260
    8    3    6    4        0.0054318780
    8    4    6    1        0.0004261615
    8    4    6    2        0.0000000009
    8    4    6    3        0.0083565543
    8    7    6    1        0.0000000002
    8    7    6    2       -0.0000989029
    8    7    6    4       -0.0038597880
    8    8    6    5        0.0044529042
    8    8    6    6        0.1015638470
    8    2    7    5       -0.0000155345
    8    2    7    6       -0.0000138681
    8    4    7    5       -0.0023415915
    8    4    7    6       -0.0020904032
    8    5    7    1        0.0000000004
    8    5    7    2       -0.0001892745
    8    5    7    4       -0.0161088045
    8    6    7    1        0.0000000003
    8    6    7    2       -0.0001689706
    8    6    7    4       -0.0143807733
    8    8    7    1       -0.0000204882
    8    8    7    3        0.0005709677
    8    8    7    7        0.1009812385
    8    1    8    1        0.0003425904
    8    2    8    2        0.0003455017
    8    3    8    1        0.0006052977
    8    3    8    2        0.0000000012
    8    3    8    3        0.0072861935
    8    4    8    1       -0.0000000012
    8    4    8    2        0.0006039781
    8    4    8    4        0.0144282047
    8    5    8    5        0.0166943211
    8    6    8    5        0.0120034069
    8    6    8    6        0.0139643254
    8    7    8    1       -0.0001481427
    8    7    8    2       -0.0000000003
    8    7    8    3       -0.0042147313
    8    7    8    7        0.0064153091
    8    8    8    8        0.1043447318
    9    5    1    1        0.0000001009
    9    6    1    1       -0.0000001130
    9    9    1    1        0.1218458945
    9    5    2    1       -0.0251684323
    9    5    2    2       -0.0000001009
    9    6    2    1        0.0281927367
    9    6    2    2        0.0000001130
    9    9    2    2        0.1218458887
    9    5    3    1       -0.0000000002
    9    5    3    2        0.0000972699
    9    6    3    1        0.0000000002
    9    6    3    2       -0.0001089581
    9    9    3    1       -0.0000863633
    9    9    3    2       -0.0000000002
    9    9    3    3        0.1147631577
    9    5    4    1       -0.0000403978
    9    5    4    3       -0.0174754704
    9    6    4    1        0.0000452521
    9    6    4    3        0.0195753684
    9    9    4    1        0.0000000001
    9    9    4    2       -0.0000510962
    9    9    4    4        0.1100836091
    9    1    5    1        0.0000000009
    9    1    5    2       -0.0002338275
    9    1    5    3        0.0000000010
    9    1    5    4       -0.0003608254
    9    2    5    1       -0.0002359847
    9    2    5    2       -0.0000000009
    9    2    5    3       -0.0005094794
    9    2    5    4       -0.0000000007
    9    3    5    1        0.0000000008
    9    3    5    2       -0.0004191260
    9    3    5    4       -0.0054318780
    9    4    5    1       -0.0004261615
    9    4    5    2       -0.0000000009
    9    4    5    3       -0.0083565543
    9    7    5    1       -0.0000000002
    9    7    5    2        0.0000989029
    9    7    5    4        0.0038597880
    9    8    5    5       -0.0044529042
    9    9    5    5        0.1015638470
    9    1    6    1       -0.0000000011
    9    1    6    2        0.0002619248
    9    1    6    3       -0.0000000011
    9    1    6    4        0.0004041832
    9    2    6    1        0.0002643412
    9    2    6    2        0.0000000011
    9    2    6    3        0.0005706998
    9    2    6    4        0.0000000008
    9    3    6    1       -0.0000000009
    9    3    6    2        0.0004694893
    9    3    6    4        0.0060845866
    9    4    6    1        0.0004773701
    9    4    6    2        0.0000000010
    9    4    6    3        0.0093606996
    9    7    6    1        0.0000000002
    9    7    6    2       -0.0001107874
    9    7    6    4       -0.0043235901
    9    8    6    5        0.0005063733
    9    8    6    6        0.0044529042
    9    9    6    5       -0.0044529042
    9    9    6    6        0.1025765935
    9    2    7    5        0.0000138681
    9    2    7    6       -0.0000155345
    9    4    7    5        0.0020904032
    9    4    7    6       -0.0023415915
    9    5    7    1       -0.0000000003
    9    5    7    2        0.0001689706
    9    5    7    4        0.0143807733
    9    6    7    1        0.0000000004
    9    6    7    2       -0.0001892745
    9    6    7    4       -0.0161088045
    9    9    7    1       -0.0000204882
    9    9    7    3        0.0005709677
    9    9    7    7        0.1009812385
    9    5    8    5       -0.0120034069
    9    5    8    6       -0.0074672184
    9    6    8    5        0.0101972141
    9    6    8    6        0.0120034069
    9    9    8    8        0.0945128429
    9    1    9    1        0.0003425904
    9    2    9    2        0.0003455017
    9    3    9    1        0.0006052977
    9    3    9    2        0.0000000012
    9    3    9    3        0.0072861935
    9    4    9    1       -0.0000000012
    9    4    9    2        0.0006039781
    9    4    9    4        0.0144282047
    9    5    9    5        0.0139643254
    9    6    9    5       -0.0120034069
    9    6    9    6        0.0166943211
    9    7    9    1       -0.0001481427
    9    7    9    2       -0.0000000003
    9    7    9    3       -0.0042147313
    9    7    9    7        0.0064153091
    9    8    9    8        0.0049159444
    9    9    9    9        0.1043447318
   10    1    1    1        0.0000001964
   10    2    1    1       -0.0326045943
   10    3    1    1       -0.0000001811
   10    4    1    1        0.0471555240
   10    7    1    1       -0.0000000644
   10   10    1    1        0.1210988084
   10    1    2    1       -0.0326996819
   10    1    2    2       -0.0000000657
   10    2    2    1       -0.0000000655
   10    2    2    2       -0.0326051930
   10    3    2    1        0.0451804379
   10    3    2    2        0.0000001811
   10    4    2    2        0.0471557027
   10    7    2    1        0.0160748898
   10    7    2    2        0.0000000644
   10   10    2    2        0.1210989140
   10    1    3    1       -0.0000000142
   10    1    3    2        0.0035448161
   10    1    3    3        0.0000000014
   10    2    3    1        0.0035451602
   10    2    3    2        0.0000000142
   10    2    3    3       -0.0007013062
   10    3    3    1        0.0000000015
   10    3    3    2       -0.0007606238
   10    4    3    1       -0.0004792487
   10    4    3    2       -0.0000000010
   10    4    3    3        0.0311890411
   10    7    3    2        0.0000172094
   10   10    3    1       -0.0003564662
   10   10    3    2       -0.0000000007
   10   10    3    3        0.1077155025
   10    1    4    1        0.0037553212
   10    1    4    3       -0.0009819932
   10    1    4    4        0.0000000010
   10    2    4    2        0.0037541962
   10    2    4    3       -0.0000000020
   10    2    4    4       -0.0004952083
   10    3    4    1       -0.0010106100
   10    3    4    2       -0.0000000020
   10    3    4    3        0.0207585575
   10    4    4    1        0.0000000010
   10    4    4    2       -0.0005071806
   10    4    4    4        0.0183764416
   10    7    4    1       -0.0000272349
   10    7    4    3        0.0154329527
   10   10    4    1        0.0000000006
   10   10    4    2       -0.0003212860
   10   10    4    4        0.1063554069
   10    2    5    5        0.0000203479
   10    4    5    5        0.0163383453
   10    5    5    1       -0.0000000006
   10    5    5    2        0.0003104671
   10    5    5    4        0.0020807768
   10    8    5    1        0.0002008154
   10    8    5    2        0.0000000004
   10    8    5    3        0.0019688631
   10    9    5    1       -0.0001792735
   10    9    5    2       -0.0000000004
   10    9    5    3       -0.0017576583
   10   10    5    5        0.0911995589
   10    2    6    6        0.0000203479
   10    4    6    6        0.0163383453
   10    6    6    1       -0.0000000006
   10    6    6    2        0.0003104671
   10    6    6    4        0.0020807768
   10    8    6    1        0.0001792735
   10    8    6    2        0.0000000004
   10    8    6    3        0.0017576583
   10    9    6    1        0.0002008154
   10    9    6    2        0.0000000004
   10    9    6    3        0.0019688631
   10   10    6    6        0.0911995589
   10    1    7    1        0.0000000002
   10    1    7    2       -0.0000439772
   10    1    7    3       -0.0000000004
   10    1    7    4        0.0001324855
   10    1    7    7        0.0000000001
   10    2    7    1       -0.0000423899
   10    2    7    2       -0.0000000002
   10    2    7    3        0.0001835085
   10    2    7    4        0.0000000003
   10    2    7    7       -0.0000660743
   10    3    7    1       -0.0000000002
   10    3    7    2        0.0001045446
   10    3    7    4       -0.0076651673
   10    4    7    1        0.0001452075
   10    4    7    2        0.0000000003
   10    4    7    3        0.0061296129
   10    4    7    7        0.0084247534
   10    7    7    1       -0.0000000001
   10    7    7    2        0.0000716939
   10    7    7    4       -0.0184210896
   10    8    7    5        0.0019195439
   10    8    7    6        0.0017136297
   10    9    7    5       -0.0017136297
   10    9    7    6        0.0019195439
   10   10    7    1        0.0000415688
   10   10    7    3       -0.0009758787
   10   10    7    7        0.1033056722
   10    1    8    5       -0.0000323798
   10    1    8    6       -0.0000289063
   10    2    8    8       -0.0000200857
   10    3    8    5        0.0081467670
   10    3    8    6        0.0072728432
   10    4    8    8        0.0104955051
   10    5    8    1        0.0002181299
   10    5    8    2        0.0000000004
   10    5    8    3        0.0016996220
   10    5    8    7        0.0009791910
   10    6    8    1        0.0001947306
   10    6    8    2        0.0000000004
   10    6    8    3        0.0015172994
   10    6    8    7        0.0008741508
   10    7    8    5        0.0106308344
   10    7    8    6        0.0094904386
   10    8    8    1       -0.0000000005
   10    8    8    2        0.0002513235
   10    8    8    4       -0.0001174352
   10   10    8    8        0.0909115034
   10    1    9    5        0.0000289063
   10    1    9    6       -0.0000323798
   10    2    9    9       -0.0000200857
   10    3    9    5       -0.0072728432
   10    3    9    6        0.0081467670
   10    4    9    9        0.0104955051
   10    5    9    1       -0.0001947306
   10    5    9    2       -0.0000000004
   10    5    9    3       -0.0015172994
   10    5    9    7       -0.0008741508
   10    6    9    1        0.0002181299
   10    6    9    2        0.0000000004
   10    6    9    3        0.0016996220
   10    6    9    7        0.0009791910
   10    7    9    5       -0.0094904386
   10    7    9    6        0.0106308344
   10    9    9    1       -0.0000000005
   10    9    9    2        0.0002513235
   10    9    9    4       -0.0001174352
   10   10    9    9        0.0909115034
   10    1   10    1        0.0026404140
   10    2   10    2        0.0026404508
   10    3   10    1       -0.0006066473
   10    3   10    2       -0.0000000012
   10    3   10    3        0.0129947739
   10    4   10    1        0.0000000006
   10    4   10    2       -0.0002793609
   10    4   10    4        0.0139362959
   10    5   10    5        0.0029912106
   10    6   10    6        0.0029912106
   10    7   10    1        0.0000266913
   10    7   10    3        0.0038908149
   10    7   10    7        0.0194079770
   10    8   10    8        0.0042544426
   10    9   10    9        0.0042544426
   10   10   10    1        0.0000000004
   10   10   10    2       -0.0002032779
   10   10   10    4        0.0031094459
   10   10   10   10        0.0993108869
 end_two_electron_integrals
 onebody.inp
     -4.7810581044     1
      0.0000000000     2
     -4.7810769565     3
      0.1127125127     4
      0.0000002259     5
     -1.1783131296     6
     -0.0000001906     7
      0.0951198248     8
      0.0000000000     9
     -0.9693029197    10
      0.0000000000    11
     -0.0000000000    12
      0.0000000000    13
      0.0000000000    14
     -0.7510933833    15
      0.0000000000    16
      0.0000000000    17
     -0.0000000000    18
     -0.0000000000    19
     -0.0000000000    20
     -0.7510933833    21
     -0.0077732743    22
     -0.0000000156    23
     -0.0643726975    24
     -0.0000000000    25
     -0.0000000000    26
     -0.0000000000    27
     -0.7630754779    28
     -0.0000000000    29
      0.0000000000    30
      0.0000000000    31
     -0.0000000000    32
      0.0000000000    33
      0.0000000000    34
      0.0000000000    35
     -0.6620623518    36
     -0.0000000000    37
      0.0000000000    38
     -0.0000000000    39
     -0.0000000000    40
     -0.0000000000    41
      0.0000000000    42
     -0.0000000000    43
     -0.0000000000    44
     -0.6620623518    45
     -0.0000001274    46
      0.0635948464    47
      0.0000000000    48
     -0.2256196903    49
     -0.0000000000    50
      0.0000000000    51
     -0.0000000000    52
      0.0000000000    53
      0.0000000000    54
     -0.6277703607    55
 twobody.inp
    1    1    1    1        0.8750076492
    1    1    1    2       -0.0000030535
    1    1    1    3       -0.0554889333
    1    1    1    4        0.0000002868
    1    1    1    7        0.0026142836
    1    1    1   10        0.0000001964
    1    1    2    1       -0.0000030535
    1    1    2    2        0.8750146092
    1    1    2    3        0.0000001119
    1    1    2    4       -0.0479152131
    1    1    2    7       -0.0000000024
    1    1    2   10       -0.0326045943
    1    1    3    1       -0.0554889333
    1    1    3    2        0.0000001119
    1    1    3    3        0.2152754856
    1    1    3    4       -0.0000003090
    1    1    3    7        0.0113107454
    1    1    3   10       -0.0000001811
    1    1    4    1        0.0000002868
    1    1    4    2       -0.0479152131
    1    1    4    3       -0.0000003090
    1    1    4    4        0.1784705338
    1    1    4    7        0.0000001490
    1    1    4   10        0.0471555240
    1    1    5    5        0.1342169498
    1    1    5    8       -0.0000001130
    1    1    5    9        0.0000001009
    1    1    6    6        0.1342169498
    1    1    6    8       -0.0000001009
    1    1    6    9       -0.0000001130
    1    1    7    1        0.0026142836
    1    1    7    2       -0.0000000024
    1    1    7    3        0.0113107454
    1    1    7    4        0.0000001490
    1    1    7    7        0.1394542617
    1    1    7   10       -0.0000000644
    1    1    8    5       -0.0000001130
    1    1    8    6       -0.0000001009
    1    1    8    8        0.1218458945
    1    1    9    5        0.0000001009
    1    1    9    6       -0.0000001130
    1    1    9    9        0.1218458945
    1    1   10    1        0.0000001964
    1    1   10    2       -0.0326045943
    1    1   10    3       -0.0000001811
    1    1   10    4        0.0471555240
    1    1   10    7       -0.0000000644
    1    1   10   10        0.1210988084
    1    2    1    1       -0.0000030535
    1    2    1    2        0.7619172862
    1    2    1    3        0.0000001115
    1    2    1    4       -0.0475986736
    1    2    1    7       -0.0000000038
    1    2    1   10       -0.0326996819
    1    2    2    1        0.7619157015
    1    2    2    2        0.0000030534
    1    2    2    3       -0.0556655975
    1    2    2    4       -0.0000000954
    1    2    2    7        0.0018977573
    1    2    2   10       -0.0000000655
    1    2    3    1        0.0000001115
    1    2    3    2       -0.0556662381
    1    2    3    4        0.0771003213
    1    2    3   10        0.0451804379
    1    2    4    1       -0.0475985885
    1    2    4    2       -0.0000000954
    1    2    4    3        0.0770996393
    1    2    4    7       -0.0371817199
    1    2    5    8        0.0281927367
    1    2    5    9       -0.0251684323
    1    2    6    8        0.0251684323
    1    2    6    9        0.0281927367
    1    2    7    1       -0.0000000038
    1    2    7    2        0.0018987613
    1    2    7    4       -0.0371820830
    1    2    7   10        0.0160748898
    1    2    8    5        0.0281926806
    1    2    8    6        0.0251683822
    1    2    9    5       -0.0251683822
    1    2    9    6        0.0281926806
    1    2   10    1       -0.0326997765
    1    2   10    2       -0.0000000655
    1    2   10    3        0.0451801553
    1    2   10    7        0.0160748838
    1    3    1    1       -0.0554889333
    1    3    1    2        0.0000001115
    1    3    1    3        0.0046065351
    1    3    1    4       -0.0000000205
    1    3    1    7       -0.0001158900
    1    3    1   10       -0.0000000142
    1    3    2    1        0.0000001115
    1    3    2    2       -0.0554895389
    1    3    2    4        0.0051053171
    1    3    2   10        0.0035451602
    1    3    3    1        0.0057834127
    1    3    3    3       -0.0011960611
    1    3    3    4        0.0000000025
    1    3    3    7        0.0003016747
    1    3    3   10        0.0000000015
    1    3    4    1       -0.0000000248
    1    3    4    2        0.0061795972
    1    3    4    3        0.0000000024
    1    3    4    4       -0.0008929843
    1    3    4    7       -0.0000000007
    1    3    4   10       -0.0004792487
    1    3    5    5       -0.0000158988
    1    3    5    8        0.0000000002
    1    3    5    9       -0.0000000002
    1    3    6    6       -0.0000158988
    1    3    6    8        0.0000000002
    1    3    6    9        0.0000000002
    1    3    7    1       -0.0001163817
    1    3    7    3        0.0000833792
    1    3    7    4       -0.0000000006
    1    3    7    7       -0.0001221957
    1    3    8    5        0.0000000002
    1    3    8    6        0.0000000002
    1    3    8    8       -0.0000863633
    1    3    9    5       -0.0000000002
    1    3    9    6        0.0000000002
    1    3    9    9       -0.0000863633
    1    3   10    1       -0.0000000160
    1    3   10    2        0.0039871075
    1    3   10    3        0.0000000016
    1    3   10    4       -0.0004955126
    1    3   10   10       -0.0003564662
    1    4    1    1        0.0000002868
    1    4    1    2       -0.0475986736
    1    4    1    3       -0.0000000205
    1    4    1    4        0.0055479936
    1    4    1    7        0.0000000016
    1    4    1   10        0.0037553212
    1    4    2    1       -0.0475985885
    1    4    2    2       -0.0000000947
    1    4    2    3        0.0051061282
    1    4    2    7       -0.0003992692
    1    4    3    1       -0.0000000248
    1    4    3    2        0.0061808567
    1    4    3    3        0.0000000034
    1    4    3    4       -0.0011283323
    1    4    3    7        0.0000000008
    1    4    3   10       -0.0010106100
    1    4    4    1        0.0042114582
    1    4    4    3       -0.0005510032
    1    4    4    4        0.0000000009
    1    4    4    7       -0.0003548639
    1    4    4   10        0.0000000010
    1    4    5    5        0.0000000003
    1    4    5    8        0.0000452521
    1    4    5    9       -0.0000403978
    1    4    6    6        0.0000000003
    1    4    6    8        0.0000403978
    1    4    6    9        0.0000452521
    1    4    7    1        0.0000000015
    1    4    7    2       -0.0003828948
    1    4    7    3        0.0000000008
    1    4    7    4       -0.0003470054
    1    4    7   10       -0.0000272349
    1    4    8    5        0.0000431818
    1    4    8    6        0.0000385496
    1    4    8    8        0.0000000001
    1    4    9    5       -0.0000385496
    1    4    9    6        0.0000431818
    1    4    9    9        0.0000000001
    1    4   10    1        0.0028114712
    1    4   10    3       -0.0005454611
    1    4   10    4        0.0000000010
    1    4   10    7       -0.0000310358
    1    4   10   10        0.0000000006
    1    5    1    5        0.0003612435
    1    5    1    8       -0.0000000011
    1    5    1    9        0.0000000009
    1    5    2    8        0.0002643412
    1    5    2    9       -0.0002359847
    1    5    3    5        0.0008186843
    1    5    3    8       -0.0000000009
    1    5    3    9        0.0000000008
    1    5    4    5       -0.0000000011
    1    5    4    8        0.0004773701
    1    5    4    9       -0.0004261615
    1    5    5    1        0.0003259563
    1    5    5    3        0.0007492165
    1    5    5    4       -0.0000000011
    1    5    5    7       -0.0000195801
    1    5    5   10       -0.0000000006
    1    5    7    5       -0.0000141773
    1    5    7    8        0.0000000002
    1    5    7    9       -0.0000000002
    1    5    8    1       -0.0000000009
    1    5    8    2        0.0002336491
    1    5    8    3       -0.0000000008
    1    5    8    4        0.0004712836
    1    5    8    7        0.0000000002
    1    5    8   10        0.0002008154
    1    5    9    1        0.0000000008
    1    5    9    2       -0.0002085849
    1    5    9    3        0.0000000007
    1    5    9    4       -0.0004207278
    1    5    9    7       -0.0000000002
    1    5    9   10       -0.0001792735
    1    5   10    5       -0.0000000006
    1    5   10    8        0.0002037513
    1    5   10    9       -0.0001818944
    1    6    1    6        0.0003612435
    1    6    1    8       -0.0000000009
    1    6    1    9       -0.0000000011
    1    6    2    8        0.0002359847
    1    6    2    9        0.0002643412
    1    6    3    6        0.0008186843
    1    6    3    8       -0.0000000008
    1    6    3    9       -0.0000000009
    1    6    4    6       -0.0000000011
    1    6    4    8        0.0004261615
    1    6    4    9        0.0004773701
    1    6    6    1        0.0003259563
    1    6    6    3        0.0007492165
    1    6    6    4       -0.0000000011
    1    6    6    7       -0.0000195801
    1    6    6   10       -0.0000000006
    1    6    7    6       -0.0000141773
    1    6    7    8        0.0000000002
    1    6    7    9        0.0000000002
    1    6    8    1       -0.0000000008
    1    6    8    2        0.0002085849
    1    6    8    3       -0.0000000007
    1    6    8    4        0.0004207278
    1    6    8    7        0.0000000002
    1    6    8   10        0.0001792735
    1    6    9    1       -0.0000000009
    1    6    9    2        0.0002336491
    1    6    9    3       -0.0000000008
    1    6    9    4        0.0004712836
    1    6    9    7        0.0000000002
    1    6    9   10        0.0002008154
    1    6   10    6       -0.0000000006
    1    6   10    8        0.0001818944
    1    6   10    9        0.0002037513
    1    7    1    1        0.0026142836
    1    7    1    2       -0.0000000038
    1    7    1    3       -0.0001158900
    1    7    1    4        0.0000000016
    1    7    1    7        0.0005384870
    1    7    1   10        0.0000000002
    1    7    2    1       -0.0000000038
    1    7    2    2        0.0026153840
    1    7    2    4       -0.0004037106
    1    7    2   10       -0.0000423899
    1    7    3    1       -0.0001163817
    1    7    3    3        0.0009792117
    1    7    3    4        0.0000000011
    1    7    3    7        0.0011495133
    1    7    3   10       -0.0000000002
    1    7    4    1        0.0000000015
    1    7    4    2       -0.0003860542
    1    7    4    3        0.0000000008
    1    7    4    4       -0.0004669055
    1    7    4    7       -0.0000000019
    1    7    4   10        0.0001452075
    1    7    5    5        0.0002517769
    1    7    5    8        0.0000000004
    1    7    5    9       -0.0000000003
    1    7    6    6        0.0002517769
    1    7    6    8        0.0000000003
    1    7    6    9        0.0000000004
    1    7    7    1        0.0004752212
    1    7    7    3        0.0010460636
    1    7    7    4       -0.0000000019
    1    7    7    7       -0.0000934007
    1    7    7   10       -0.0000000001
    1    7    8    5        0.0000000004
    1    7    8    6        0.0000000003
    1    7    8    8       -0.0000204882
    1    7    9    5       -0.0000000003
    1    7    9    6        0.0000000004
    1    7    9    9       -0.0000204882
    1    7   10    1        0.0000000002
    1    7   10    2       -0.0000610772
    1    7   10    3       -0.0000000002
    1    7   10    4        0.0001455081
    1    7   10    7       -0.0000000002
    1    7   10   10        0.0000415688
    1    8    1    5       -0.0000000011
    1    8    1    6       -0.0000000009
    1    8    1    8        0.0003425904
    1    8    2    5        0.0002619248
    1    8    2    6        0.0002338275
    1    8    3    5       -0.0000000011
    1    8    3    6       -0.0000000010
    1    8    3    8        0.0006052977
    1    8    4    5        0.0004041832
    1    8    4    6        0.0003608254
    1    8    4    8       -0.0000000012
    1    8    5    1       -0.0000000009
    1    8    5    2        0.0002315964
    1    8    5    3       -0.0000000010
    1    8    5    4        0.0003994518
    1    8    5   10        0.0002181299
    1    8    6    1       -0.0000000008
    1    8    6    2        0.0002067525
    1    8    6    3       -0.0000000009
    1    8    6    4        0.0003566016
    1    8    6   10        0.0001947306
    1    8    7    8       -0.0001481427
    1    8    8    1        0.0002990407
    1    8    8    3        0.0005092566
    1    8    8    4       -0.0000000012
    1    8    8    7       -0.0001506841
    1    8    8   10       -0.0000000005
    1    8   10    5        0.0002198871
    1    8   10    6        0.0001962992
    1    8   10    8       -0.0000000005
    1    9    1    5        0.0000000009
    1    9    1    6       -0.0000000011
    1    9    1    9        0.0003425904
    1    9    2    5       -0.0002338275
    1    9    2    6        0.0002619248
    1    9    3    5        0.0000000010
    1    9    3    6       -0.0000000011
    1    9    3    9        0.0006052977
    1    9    4    5       -0.0003608254
    1    9    4    6        0.0004041832
    1    9    4    9       -0.0000000012
    1    9    5    1        0.0000000008
    1    9    5    2       -0.0002067525
    1    9    5    3        0.0000000009
    1    9    5    4       -0.0003566016
    1    9    5   10       -0.0001947306
    1    9    6    1       -0.0000000009
    1    9    6    2        0.0002315964
    1    9    6    3       -0.0000000010
    1    9    6    4        0.0003994518
    1    9    6   10        0.0002181299
    1    9    7    9       -0.0001481427
    1    9    9    1        0.0002990407
    1    9    9    3        0.0005092566
    1    9    9    4       -0.0000000012
    1    9    9    7       -0.0001506841
    1    9    9   10       -0.0000000005
    1    9   10    5       -0.0001962992
    1    9   10    6        0.0002198871
    1    9   10    9       -0.0000000005
    1   10    1    1        0.0000001964
    1   10    1    2       -0.0326996819
    1   10    1    3       -0.0000000142
    1   10    1    4        0.0037553212
    1   10    1    7        0.0000000002
    1   10    1   10        0.0026404140
    1   10    2    1       -0.0326997765
    1   10    2    2       -0.0000000657
    1   10    2    3        0.0035448161
    1   10    2    7       -0.0000439772
    1   10    3    1       -0.0000000160
    1   10    3    2        0.0039869499
    1   10    3    3        0.0000000014
    1   10    3    4       -0.0009819932
    1   10    3    7       -0.0000000004
    1   10    3   10       -0.0006066473
    1   10    4    1        0.0028114712
    1   10    4    3       -0.0005253043
    1   10    4    4        0.0000000010
    1   10    4    7        0.0001324855
    1   10    4   10        0.0000000006
    1   10    5    8       -0.0000323798
    1   10    5    9        0.0000289063
    1   10    6    8       -0.0000289063
    1   10    6    9       -0.0000323798
    1   10    7    1        0.0000000002
    1   10    7    2       -0.0000628725
    1   10    7    3       -0.0000000003
    1   10    7    4        0.0001380105
    1   10    7    7        0.0000000001
    1   10    7   10        0.0000266913
    1   10    8    5       -0.0000335344
    1   10    8    6       -0.0000299370
    1   10    9    5        0.0000299370
    1   10    9    6       -0.0000335344
    1   10   10    1        0.0019645742
    1   10   10    3       -0.0003280361
    1   10   10    4        0.0000000005
    1   10   10    7        0.0000258580
    1   10   10   10        0.0000000004
    2    1    1    1       -0.0000030535
    2    1    1    2        0.7619157015
    2    1    1    3        0.0000001115
    2    1    1    4       -0.0475985885
    2    1    1    7       -0.0000000038
    2    1    1   10       -0.0326997765
    2    1    2    1        0.7619172862
    2    1    2    2        0.0000030534
    2    1    2    3       -0.0556662381
    2    1    2    4       -0.0000000954
    2    1    2    7        0.0018987613
    2    1    2   10       -0.0000000655
    2    1    3    1        0.0000001115
    2    1    3    2       -0.0556655975
    2    1    3    4        0.0770996393
    2    1    3   10        0.0451801553
    2    1    4    1       -0.0475986736
    2    1    4    2       -0.0000000954
    2    1    4    3        0.0771003213
    2    1    4    7       -0.0371820830
    2    1    5    8        0.0281926806
    2    1    5    9       -0.0251683822
    2    1    6    8        0.0251683822
    2    1    6    9        0.0281926806
    2    1    7    1       -0.0000000038
    2    1    7    2        0.0018977573
    2    1    7    4       -0.0371817199
    2    1    7   10        0.0160748838
    2    1    8    5        0.0281927367
    2    1    8    6        0.0251684323
    2    1    9    5       -0.0251684323
    2    1    9    6        0.0281927367
    2    1   10    1       -0.0326996819
    2    1   10    2       -0.0000000655
    2    1   10    3        0.0451804379
    2    1   10    7        0.0160748898
    2    2    1    1        0.8750146092
    2    2    1    2        0.0000030534
    2    2    1    3       -0.0554895389
    2    2    1    4       -0.0000000947
    2    2    1    7        0.0026153840
    2    2    1   10       -0.0000000657
    2    2    2    1        0.0000030534
    2    2    2    2        0.8750247447
    2    2    2    3       -0.0000003343
    2    2    2    4       -0.0479144871
    2    2    2    7        0.0000000128
    2    2    2   10       -0.0326051930
    2    2    3    1       -0.0554895389
    2    2    3    2       -0.0000003343
    2    2    3    3        0.2152745319
    2    2    3    4        0.0000003090
    2    2    3    7        0.0113099638
    2    2    3   10        0.0000001811
    2    2    4    1       -0.0000000947
    2    2    4    2       -0.0479144871
    2    2    4    3        0.0000003090
    2    2    4    4        0.1784707796
    2    2    4    7       -0.0000001490
    2    2    4   10        0.0471557027
    2    2    5    5        0.1342170125
    2    2    5    8        0.0000001130
    2    2    5    9       -0.0000001009
    2    2    6    6        0.1342170125
    2    2    6    8        0.0000001009
    2    2    6    9        0.0000001130
    2    2    7    1        0.0026153840
    2    2    7    2        0.0000000128
    2    2    7    3        0.0113099638
    2    2    7    4       -0.0000001490
    2    2    7    7        0.1394549224
    2    2    7   10        0.0000000644
    2    2    8    5        0.0000001130
    2    2    8    6        0.0000001009
    2    2    8    8        0.1218458887
    2    2    9    5       -0.0000001009
    2    2    9    6        0.0000001130
    2    2    9    9        0.1218458887
    2    2   10    1       -0.0000000657
    2    2   10    2       -0.0326051930
    2    2   10    3        0.0000001811
    2    2   10    4        0.0471557027
    2    2   10    7        0.0000000644
    2    2   10   10        0.1210989140
    2    3    1    1        0.0000001119
    2    3    1    2       -0.0556655975
    2    3    1    4        0.0051061282
    2    3    1   10        0.0035448161
    2    3    2    1       -0.0556662381
    2    3    2    2       -0.0000003343
    2    3    2    3        0.0046079925
    2    3    2    4        0.0000000205
    2    3    2    7       -0.0001180090
    2    3    2   10        0.0000000142
    2    3    3    2        0.0057832052
    2    3    3    3       -0.0000000024
[...]
     -0.0000000011     6   4   6   1
      0.0005699980     6   4   6   2
      0.0094998442     6   4   6   4
      0.0054970949     6   5   6   5
      0.1342169498     6   6   1   1
      0.1342170125     6   6   2   2
     -0.0000158988     6   6   3   1
      0.1298153058     6   6   3   3
      0.0000000003     6   6   4   1
     -0.0001637698     6   6   4   2
      0.1136317853     6   6   4   4
      0.1060183018     6   6   5   5
      0.1170124916     6   6   6   6
      0.0026142836     7   1   1   1
     -0.0000000038     7   1   2   1
      0.0026153840     7   1   2   2
     -0.0001158900     7   1   3   1
      0.0009792117     7   1   3   3
      0.0000000016     7   1   4   1
     -0.0004037106     7   1   4   2
      0.0000000011     7   1   4   3
     -0.0004669055     7   1   4   4
      0.0002517769     7   1   5   5
      0.0002517769     7   1   6   6
      0.0005384870     7   1   7   1
     -0.0000000024     7   2   1   1
      0.0018977573     7   2   2   1
      0.0000000128     7   2   2   2
     -0.0001180090     7   2   3   2
      0.0000000020     7   2   3   3
     -0.0003992692     7   2   4   1
     -0.0000000016     7   2   4   2
     -0.0005554140     7   2   4   3
     -0.0000000009     7   2   4   4
      0.0000000005     7   2   5   5
      0.0000000005     7   2   6   6
      0.0005269960     7   2   7   2
      0.0113107454     7   3   1   1
      0.0113099638     7   3   2   2
      0.0003016747     7   3   3   1
      0.0000000006     7   3   3   2
      0.0146358095     7   3   3   3
      0.0000000008     7   3   4   1
     -0.0004236235     7   3   4   2
     -0.0015651137     7   3   4   4
      0.0080880240     7   3   5   5
      0.0080880240     7   3   6   6
      0.0011495133     7   3   7   1
      0.0000000023     7   3   7   2
      0.0199835258     7   3   7   3
      0.0000001490     7   4   1   1
     -0.0371817199     7   4   2   1
     -0.0000001490     7   4   2   2
     -0.0000000007     7   4   3   1
      0.0003574642     7   4   3   2
     -0.0003548639     7   4   4   1
     -0.0000000007     7   4   4   2
     -0.0273389518     7   4   4   3
     -0.0000000019     7   4   7   1
      0.0009666473     7   4   7   2
      0.0328693097     7   4   7   4
     -0.0000195801     7   5   5   1
      0.0009655177     7   5   5   3
      0.0048516741     7   5   7   5
     -0.0000195801     7   6   6   1
      0.0009655177     7   6   6   3
      0.0048516741     7   6   7   6
      0.1394542617     7   7   1   1
      0.1394549224     7   7   2   2
     -0.0001221957     7   7   3   1
     -0.0000000002     7   7   3   2
      0.1279131102     7   7   3   3
     -0.0000436028     7   7   4   2
      0.1237611088     7   7   4   4
      0.1036592298     7   7   5   5
      0.1036592298     7   7   6   6
     -0.0000934007     7   7   7   1
     -0.0000000002     7   7   7   2
      0.0001310454     7   7   7   3
      0.1177636655     7   7   7   7
     -0.0000000011     8   1   5   1
      0.0002619248     8   1   5   2
     -0.0000000011     8   1   5   3
      0.0004041832     8   1   5   4
     -0.0000000009     8   1   6   1
      0.0002338275     8   1   6   2
     -0.0000000010     8   1   6   3
      0.0003608254     8   1   6   4
      0.0003425904     8   1   8   1
      0.0002643412     8   2   5   1
      0.0000000011     8   2   5   2
      0.0005706998     8   2   5   3
      0.0000000008     8   2   5   4
      0.0002359847     8   2   6   1
      0.0000000009     8   2   6   2
      0.0005094794     8   2   6   3
      0.0000000007     8   2   6   4
     -0.0000155345     8   2   7   5
     -0.0000138681     8   2   7   6
      0.0003455017     8   2   8   2
     -0.0000000009     8   3   5   1
      0.0004694893     8   3   5   2
      0.0060845866     8   3   5   4
     -0.0000000008     8   3   6   1
      0.0004191260     8   3   6   2
      0.0054318780     8   3   6   4
      0.0006052977     8   3   8   1
      0.0000000012     8   3   8   2
      0.0072861935     8   3   8   3
      0.0004773701     8   4   5   1
      0.0000000010     8   4   5   2
      0.0093606996     8   4   5   3
      0.0004261615     8   4   6   1
      0.0000000009     8   4   6   2
      0.0083565543     8   4   6   3
     -0.0023415915     8   4   7   5
     -0.0020904032     8   4   7   6
     -0.0000000012     8   4   8   1
      0.0006039781     8   4   8   2
      0.0144282047     8   4   8   4
     -0.0000001130     8   5   1   1
      0.0281927367     8   5   2   1
      0.0000001130     8   5   2   2
      0.0000000002     8   5   3   1
     -0.0001089581     8   5   3   2
      0.0000452521     8   5   4   1
      0.0195753684     8   5   4   3
      0.0000000004     8   5   7   1
     -0.0001892745     8   5   7   2
     -0.0161088045     8   5   7   4
      0.0166943211     8   5   8   5
     -0.0000001009     8   6   1   1
      0.0251684323     8   6   2   1
      0.0000001009     8   6   2   2
      0.0000000002     8   6   3   1
     -0.0000972699     8   6   3   2
      0.0000403978     8   6   4   1
      0.0174754704     8   6   4   3
      0.0000000003     8   6   7   1
     -0.0001689706     8   6   7   2
     -0.0143807733     8   6   7   4
      0.0120034069     8   6   8   5
      0.0139643254     8   6   8   6
      0.0000000002     8   7   5   1
     -0.0001107874     8   7   5   2
     -0.0043235901     8   7   5   4
      0.0000000002     8   7   6   1
     -0.0000989029     8   7   6   2
     -0.0038597880     8   7   6   4
     -0.0001481427     8   7   8   1
     -0.0000000003     8   7   8   2
     -0.0042147313     8   7   8   3
      0.0064153091     8   7   8   7
      0.1218458945     8   8   1   1
      0.1218458887     8   8   2   2
     -0.0000863633     8   8   3   1
     -0.0000000002     8   8   3   2
      0.1147631577     8   8   3   3
      0.0000000001     8   8   4   1
     -0.0000510962     8   8   4   2
      0.1100836091     8   8   4   4
      0.1025765935     8   8   5   5
      0.0044529042     8   8   6   5
      0.1015638470     8   8   6   6
     -0.0000204882     8   8   7   1
      0.0005709677     8   8   7   3
      0.1009812385     8   8   7   7
      0.1043447318     8   8   8   8
      0.0000000009     9   1   5   1
     -0.0002338275     9   1   5   2
      0.0000000010     9   1   5   3
     -0.0003608254     9   1   5   4
     -0.0000000011     9   1   6   1
      0.0002619248     9   1   6   2
     -0.0000000011     9   1   6   3
      0.0004041832     9   1   6   4
      0.0003425904     9   1   9   1
     -0.0002359847     9   2   5   1
     -0.0000000009     9   2   5   2
     -0.0005094794     9   2   5   3
     -0.0000000007     9   2   5   4
      0.0002643412     9   2   6   1
      0.0000000011     9   2   6   2
      0.0005706998     9   2   6   3
      0.0000000008     9   2   6   4
      0.0000138681     9   2   7   5
     -0.0000155345     9   2   7   6
      0.0003455017     9   2   9   2
      0.0000000008     9   3   5   1
     -0.0004191260     9   3   5   2
     -0.0054318780     9   3   5   4
     -0.0000000009     9   3   6   1
      0.0004694893     9   3   6   2
      0.0060845866     9   3   6   4
      0.0006052977     9   3   9   1
      0.0000000012     9   3   9   2
      0.0072861935     9   3   9   3
     -0.0004261615     9   4   5   1
     -0.0000000009     9   4   5   2
     -0.0083565543     9   4   5   3
      0.0004773701     9   4   6   1
      0.0000000010     9   4   6   2
      0.0093606996     9   4   6   3
      0.0020904032     9   4   7   5
     -0.0023415915     9   4   7   6
     -0.0000000012     9   4   9   1
      0.0006039781     9   4   9   2
      0.0144282047     9   4   9   4
      0.0000001009     9   5   1   1
     -0.0251684323     9   5   2   1
     -0.0000001009     9   5   2   2
     -0.0000000002     9   5   3   1
      0.0000972699     9   5   3   2
     -0.0000403978     9   5   4   1
     -0.0174754704     9   5   4   3
     -0.0000000003     9   5   7   1
      0.0001689706     9   5   7   2
      0.0143807733     9   5   7   4
     -0.0120034069     9   5   8   5
     -0.0074672184     9   5   8   6
      0.0139643254     9   5   9   5
     -0.0000001130     9   6   1   1
      0.0281927367     9   6   2   1
      0.0000001130     9   6   2   2
      0.0000000002     9   6   3   1
     -0.0001089581     9   6   3   2
      0.0000452521     9   6   4   1
      0.0195753684     9   6   4   3
      0.0000000004     9   6   7   1
     -0.0001892745     9   6   7   2
     -0.0161088045     9   6   7   4
      0.0101972141     9   6   8   5
      0.0120034069     9   6   8   6
     -0.0120034069     9   6   9   5
      0.0166943211     9   6   9   6
     -0.0000000002     9   7   5   1
      0.0000989029     9   7   5   2
      0.0038597880     9   7   5   4
      0.0000000002     9   7   6   1
     -0.0001107874     9   7   6   2
     -0.0043235901     9   7   6   4
     -0.0001481427     9   7   9   1
     -0.0000000003     9   7   9   2
     -0.0042147313     9   7   9   3
      0.0064153091     9   7   9   7
     -0.0044529042     9   8   5   5
      0.0005063733     9   8   6   5
      0.0044529042     9   8   6   6
      0.0049159444     9   8   9   8
      0.1218458945     9   9   1   1
      0.1218458887     9   9   2   2
     -0.0000863633     9   9   3   1
     -0.0000000002     9   9   3   2
      0.1147631577     9   9   3   3
      0.0000000001     9   9   4   1
     -0.0000510962     9   9   4   2
      0.1100836091     9   9   4   4
      0.1015638470     9   9   5   5
     -0.0044529042     9   9   6   5
      0.1025765935     9   9   6   6
     -0.0000204882     9   9   7   1
      0.0005709677     9   9   7   3
      0.1009812385     9   9   7   7
      0.0945128429     9   9   8   8
      0.1043447318     9   9   9   9
      0.0000001964    10   1   1   1
     -0.0326996819    10   1   2   1
     -0.0000000657    10   1   2   2
     -0.0000000142    10   1   3   1
      0.0035448161    10   1   3   2
      0.0000000014    10   1   3   3
      0.0037553212    10   1   4   1
     -0.0009819932    10   1   4   3
      0.0000000010    10   1   4   4
      0.0000000002    10   1   7   1
     -0.0000439772    10   1   7   2
     -0.0000000004    10   1   7   3
      0.0001324855    10   1   7   4
      0.0000000001    10   1   7   7
     -0.0000323798    10   1   8   5
     -0.0000289063    10   1   8   6
      0.0000289063    10   1   9   5
     -0.0000323798    10   1   9   6
      0.0026404140    10   1  10   1
     -0.0326045943    10   2   1   1
     -0.0000000655    10   2   2   1
     -0.0326051930    10   2   2   2
      0.0035451602    10   2   3   1
      0.0000000142    10   2   3   2
     -0.0007013062    10   2   3   3
      0.0037541962    10   2   4   2
     -0.0000000020    10   2   4   3
     -0.0004952083    10   2   4   4
      0.0000203479    10   2   5   5
      0.0000203479    10   2   6   6
     -0.0000423899    10   2   7   1
     -0.0000000002    10   2   7   2
      0.0001835085    10   2   7   3
      0.0000000003    10   2   7   4
     -0.0000660743    10   2   7   7
     -0.0000200857    10   2   8   8
     -0.0000200857    10   2   9   9
      0.0026404508    10   2  10   2
     -0.0000001811    10   3   1   1
      0.0451804379    10   3   2   1
      0.0000001811    10   3   2   2
      0.0000000015    10   3   3   1
     -0.0007606238    10   3   3   2
     -0.0010106100    10   3   4   1
     -0.0000000020    10   3   4   2
      0.0207585575    10   3   4   3
     -0.0000000002    10   3   7   1
      0.0001045446    10   3   7   2
     -0.0076651673    10   3   7   4
      0.0081467670    10   3   8   5
      0.0072728432    10   3   8   6
     -0.0072728432    10   3   9   5
      0.0081467670    10   3   9   6
     -0.0006066473    10   3  10   1
     -0.0000000012    10   3  10   2
      0.0129947739    10   3  10   3
      0.0471555240    10   4   1   1
      0.0471557027    10   4   2   2
     -0.0004792487    10   4   3   1
     -0.0000000010    10   4   3   2
      0.0311890411    10   4   3   3
      0.0000000010    10   4   4   1
     -0.0005071806    10   4   4   2
      0.0183764416    10   4   4   4
      0.0163383453    10   4   5   5
      0.0163383453    10   4   6   6
      0.0001452075    10   4   7   1
      0.0000000003    10   4   7   2
      0.0061296129    10   4   7   3
      0.0084247534    10   4   7   7
      0.0104955051    10   4   8   8
      0.0104955051    10   4   9   9
      0.0000000006    10   4  10   1
     -0.0002793609    10   4  10   2
      0.0139362959    10   4  10   4
     -0.0000000006    10   5   5   1
      0.0003104671    10   5   5   2
      0.0020807768    10   5   5   4
      0.0002181299    10   5   8   1
      0.0000000004    10   5   8   2
      0.0016996220    10   5   8   3
      0.0009791910    10   5   8   7
     -0.0001947306    10   5   9   1
     -0.0000000004    10   5   9   2
     -0.0015172994    10   5   9   3
     -0.0008741508    10   5   9   7
      0.0029912106    10   5  10   5
     -0.0000000006    10   6   6   1
      0.0003104671    10   6   6   2
      0.0020807768    10   6   6   4
      0.0001947306    10   6   8   1
      0.0000000004    10   6   8   2
      0.0015172994    10   6   8   3
      0.0008741508    10   6   8   7
      0.0002181299    10   6   9   1
      0.0000000004    10   6   9   2
      0.0016996220    10   6   9   3
      0.0009791910    10   6   9   7
      0.0029912106    10   6  10   6
     -0.0000000644    10   7   1   1
      0.0160748898    10   7   2   1
      0.0000000644    10   7   2   2
      0.0000172094    10   7   3   2
     -0.0000272349    10   7   4   1
      0.0154329527    10   7   4   3
     -0.0000000001    10   7   7   1
      0.0000716939    10   7   7   2
     -0.0184210896    10   7   7   4
      0.0106308344    10   7   8   5
      0.0094904386    10   7   8   6
     -0.0094904386    10   7   9   5
      0.0106308344    10   7   9   6
      0.0000266913    10   7  10   1
      0.0038908149    10   7  10   3
      0.0194079770    10   7  10   7
      0.0002008154    10   8   5   1
      0.0000000004    10   8   5   2
      0.0019688631    10   8   5   3
      0.0001792735    10   8   6   1
      0.0000000004    10   8   6   2
      0.0017576583    10   8   6   3
      0.0019195439    10   8   7   5
      0.0017136297    10   8   7   6
     -0.0000000005    10   8   8   1
      0.0002513235    10   8   8   2
     -0.0001174352    10   8   8   4
      0.0042544426    10   8  10   8
     -0.0001792735    10   9   5   1
     -0.0000000004    10   9   5   2
     -0.0017576583    10   9   5   3
      0.0002008154    10   9   6   1
      0.0000000004    10   9   6   2
      0.0019688631    10   9   6   3
     -0.0017136297    10   9   7   5
      0.0019195439    10   9   7   6
     -0.0000000005    10   9   9   1
      0.0002513235    10   9   9   2
     -0.0001174352    10   9   9   4
      0.0042544426    10   9  10   9
      0.1210988084    10  10   1   1
      0.1210989140    10  10   2   2
     -0.0003564662    10  10   3   1
     -0.0000000007    10  10   3   2
      0.1077155025    10  10   3   3
      0.0000000006    10  10   4   1
     -0.0003212860    10  10   4   2
      0.1063554069    10  10   4   4
      0.0911995589    10  10   5   5
      0.0911995589    10  10   6   6
      0.0000415688    10  10   7   1
     -0.0009758787    10  10   7   3
      0.1033056722    10  10   7   7
      0.0909115034    10  10   8   8
      0.0909115034    10  10   9   9
      0.0000000004    10  10  10   1
     -0.0002032779    10  10  10   2
      0.0031094459    10  10  10   4
      0.0993108869    10  10  10  10
     -4.7810581044     1   1   0   0
     -4.7810769565     2   2   0   0
      0.1127125127     3   1   0   0
      0.0000002259     3   2   0   0
     -1.1783131296     3   3   0   0
     -0.0000001906     4   1   0   0
      0.0951198248     4   2   0   0
     -0.9693029197     4   4   0   0
     -0.7510933833     5   5   0   0
     -0.7510933833     6   6   0   0
     -0.0077732743     7   1   0   0
     -0.0000000156     7   2   0   0
     -0.0643726975     7   3   0   0
     -0.7630754779     7   7   0   0
     -0.6620623518     8   8   0   0
     -0.6620623518     9   9   0   0
     -0.0000001274    10   1   0   0
      0.0635948464    10   2   0   0
     -0.2256196903    10   4   0   0
     -0.6277703607    10  10   0   0

 Parallel integral file used       9 records with       0 large values


 Task  times  cpu:      751.4s     wall:      756.5s


                                NWChem Input Module
                                -------------------


 Summary of allocated global arrays
-----------------------------------
  No active global arrays



                         GA Statistics for process    0
                         ------------------------------

       create   destroy   get      put      acc     scatter   gather  read&inc
calls: 2338     2338     3.77e+06 2.09e+04 1.52e+05    0        0     2.01e+05 
number of processes/call 1.00e+00 1.00e+00 1.00e+00 0.00e+00 0.00e+00
bytes total:             1.37e+10 1.05e+08 2.50e+08 0.00e+00 0.00e+00 1.61e+06
bytes remote:            0.00e+00 0.00e+00 0.00e+00 0.00e+00 0.00e+00 0.00e+00
Max memory consumed for GA by this process: 73662736 bytes

MA_summarize_allocated_blocks: starting scan ...
MA_summarize_allocated_blocks: scan completed: 0 heap blocks, 0 stack blocks
MA usage statistics:

	allocation statistics:
					      heap	     stack
					      ----	     -----
	current number of blocks	         0	         0
	maximum number of blocks	        17	        40
	current total bytes		         0	         0
	maximum total bytes		  28329720	8298725256
	maximum total K-bytes		     28330	   8298726
	maximum total M-bytes		        29	      8299


                                     CITATION
                                     --------
                Please cite the following reference when publishing
                           results obtained with NWChem:

                 M. Valiev, E.J. Bylaska, N. Govind, K. Kowalski,
              T.P. Straatsma, H.J.J. van Dam, D. Wang, J. Nieplocha,
                        E. Apra, T.L. Windus, W.A. de Jong
                 "NWChem: a comprehensive and scalable open-source
                  solution for large scale molecular simulations"
                      Comput. Phys. Commun. 181, 1477 (2010)
                           doi:10.1016/j.cpc.2010.04.018

                                      AUTHORS
                                      -------
          E. Apra, E. J. Bylaska, W. A. de Jong, N. Govind, K. Kowalski,
       T. P. Straatsma, M. Valiev, H. J. J. van Dam, D. Wang, T. L. Windus,
        J. Hammond, J. Autschbach, K. Bhaskaran-Nair, J. Brabec, K. Lopata,
    S. A. Fischer, S. Krishnamoorthy, M. Jacquelin, W. Ma, M. Klemm, O. Villa,
      Y. Chen, V. Anisimov, F. Aquino, S. Hirata, M. T. Hackler, V. Konjkov,
            D. Mejia-Rodriguez, T. Risthaus, M. Malagoli, A. Marenich,
   A. Otero-de-la-Roza, J. Mullin, P. Nichols, R. Peverati, J. Pittner, Y. Zhao,
        P.-D. Fan, A. Fonari, M. J. Williamson, R. J. Harrison, J. R. Rehr,
      M. Dupuis, D. Silverstein, D. M. A. Smith, J. Nieplocha, V. Tipparaju,
    M. Krishnan, B. E. Van Kuiken, A. Vazquez-Mayagoitia, L. Jensen, M. Swart,
      Q. Wu, T. Van Voorhis, A. A. Auer, M. Nooijen, L. D. Crosby, E. Brown,
      G. Cisneros, G. I. Fann, H. Fruchtl, J. Garza, K. Hirao, R. A. Kendall,
      J. A. Nichols, K. Tsemekhman, K. Wolinski, J. Anchell, D. E. Bernholdt,
      P. Borowski, T. Clark, D. Clerc, H. Dachsel, M. J. O. Deegan, K. Dyall,
    D. Elwood, E. Glendening, M. Gutowski, A. C. Hess, J. Jaffe, B. G. Johnson,
     J. Ju, R. Kobayashi, R. Kutteh, Z. Lin, R. Littlefield, X. Long, B. Meng,
      T. Nakajima, S. Niu, L. Pollack, M. Rosing, K. Glaesemann, G. Sandrone,
      M. Stave, H. Taylor, G. Thomas, J. H. van Lenthe, A. T. Wong, Z. Zhang.

 Total times  cpu:      751.4s     wall:      756.5s
