 argument  1 = Li2-10_ORBITALS-ccpVTZ-2_27205.nw
  NWChem w/ OpenMP: maximum threads =    1



============================== echo of input deck ==============================
title "Li2-REMOVE"
echo
start Li2-REMOVE

memory total 24 gb

geometry  units angstrom
symmetry c1
Li  0    0    0
Li  0    0    2.27205
end

basis spherical
   * library cc-pvtz
end

scf
thresh 1.0e-10
tol2e 1.0e-10
rhf
singlet
maxiter 200
end

tce
   ccsd
   maxiter 200
   thresh 1.e-6
   2eorb
   2emet 13
   tilesize 5
end

set tce:qducc T
set tce:nactv 7

task tce energy

================================================================================


                                         
                                         


              Northwest Computational Chemistry Package (NWChem) 6.8
              ------------------------------------------------------


                    Environmental Molecular Sciences Laboratory
                       Pacific Northwest National Laboratory
                                Richland, WA 99352

                              Copyright (c) 1994-2018
                       Pacific Northwest National Laboratory
                            Battelle Memorial Institute

             NWChem is an open-source computational chemistry package
                        distributed under the terms of the
                      Educational Community License (ECL) 2.0
             A copy of the license is included with this distribution
                              in the LICENSE.TXT file

                                  ACKNOWLEDGMENT
                                  --------------

            This software and its documentation were developed at the
            EMSL at Pacific Northwest National Laboratory, a multiprogram
            national laboratory, operated for the U.S. Department of Energy
            by Battelle under Contract Number DE-AC05-76RL01830. Support
            for this work was provided by the Department of Energy Office
            of Biological and Environmental Research, Office of Basic
            Energy Sciences, and the Office of Advanced Scientific Computing.


           Job information
           ---------------

    hostname        = WE35263ubuntu
    program         = /home/baum612/code/NWChem/nwchem/bin/LINUX64/nwchem
    date            = Mon Apr  8 21:53:00 2019

    compiled        = Thu_Apr_04_14:53:19_2019
    source          = /home/baum612/code/NWChem/nwchem
    nwchem branch   = Development
    nwchem revision = nwchem_on_git-845-ga8f432451
    ga revision     = 5.6.5
    use scalapack   = F
    input           = Li2-10_ORBITALS-ccpVTZ-2_27205.nw
    prefix          = Li2-REMOVE.
    data base       = ./Li2-REMOVE.db
    status          = startup
    nproc           =        1
    time left       =     -1s



           Memory information
           ------------------

    heap     =  805306368 doubles =   6144.0 Mbytes
    stack    =  805306365 doubles =   6144.0 Mbytes
    global   = 1610612736 doubles =  12288.0 Mbytes (distinct from heap & stack)
    total    = 3221225469 doubles =  24576.0 Mbytes
    verify   = yes
    hardfail = no 


           Directory information
           ---------------------

  0 permanent = .
  0 scratch   = .




                                NWChem Input Module
                                -------------------


                                    Li2-REMOVE
                                    ----------

 Scaling coordinates for geometry "geometry" by  1.889725989
 (inverse scale =  0.529177249)

 Turning off AUTOSYM since
 SYMMETRY directive was detected!


          ------
          auto-z
          ------
  no constraints, skipping    0.0000000000000000     
  no constraints, skipping    0.0000000000000000     


                             Geometry "geometry" -> ""
                             -------------------------

 Output coordinates in angstroms (scale by  1.889725989 to convert to a.u.)

  No.       Tag          Charge          X              Y              Z
 ---- ---------------- ---------- -------------- -------------- --------------
    1 Li                   3.0000     0.00000000     0.00000000    -1.13602500
    2 Li                   3.0000     0.00000000     0.00000000     1.13602500

      Atomic Mass 
      ----------- 

      Li                 7.016000


 Effective nuclear repulsion energy (a.u.)       2.0961665637

            Nuclear Dipole moment (a.u.) 
            ----------------------------
        X                 Y               Z
 ---------------- ---------------- ----------------
     0.0000000000     0.0000000000     0.0000000000



                                Z-matrix (autoz)
                                -------- 

 Units are Angstrom for bonds and degrees for angles

      Type          Name      I     J     K     L     M      Value
      ----------- --------  ----- ----- ----- ----- ----- ----------
    1 Stretch                  1     2                       2.27205


            XYZ format geometry
            -------------------
     2
 geometry
 Li                    0.00000000     0.00000000    -1.13602500
 Li                    0.00000000     0.00000000     1.13602500

 ==============================================================================
                                internuclear distances
 ------------------------------------------------------------------------------
       center one      |      center two      | atomic units |  angstroms
 ------------------------------------------------------------------------------
    2 Li               |   1 Li               |     4.29355  |     2.27205
 ------------------------------------------------------------------------------
                         number of included internuclear distances:          1
 ==============================================================================





 Summary of "ao basis" -> "" (spherical)
 ------------------------------------------------------------------------------
       Tag                 Description            Shells   Functions and Types
 ---------------- ------------------------------  ------  ---------------------
 *                          cc-pvtz                   on all atoms 


                      Basis "ao basis" -> "ao basis" (spherical)
                      -----
  Li (Lithium)
  ------------
            Exponent  Coefficients 
       -------------- ---------------------------------------------------------
  1 S  5.98800000E+03  0.000133
  1 S  8.98900000E+02  0.001025
  1 S  2.05900000E+02  0.005272
  1 S  5.92400000E+01  0.020929
  1 S  1.98700000E+01  0.066340
  1 S  7.40600000E+00  0.165775
  1 S  2.93000000E+00  0.315038
  1 S  1.18900000E+00  0.393523
  1 S  4.79800000E-01  0.190870

  2 S  5.98800000E+03 -0.000021
  2 S  8.98900000E+02 -0.000161
  2 S  2.05900000E+02 -0.000820
  2 S  5.92400000E+01 -0.003326
  2 S  1.98700000E+01 -0.010519
  2 S  7.40600000E+00 -0.028097
  2 S  2.93000000E+00 -0.055936
  2 S  1.18900000E+00 -0.099237
  2 S  4.79800000E-01 -0.112189

  3 S  7.50900000E-02  1.000000

  4 S  2.83200000E-02  1.000000

  5 P  3.26600000E+00  0.008630
  5 P  6.51100000E-01  0.047538
  5 P  1.69600000E-01  0.209772

  6 P  5.57800000E-02  1.000000

  7 P  2.05000000E-02  1.000000

  8 D  1.87400000E-01  1.000000

  9 D  8.01000000E-02  1.000000

 10 F  1.82900000E-01  1.000000



 Summary of "ao basis" -> "ao basis" (spherical)
 ------------------------------------------------------------------------------
       Tag                 Description            Shells   Functions and Types
 ---------------- ------------------------------  ------  ---------------------
 Li                         cc-pvtz                 10       30   4s3p2d1f


                                 NWChem SCF Module
                                 -----------------


                                    Li2-REMOVE



  ao basis        = "ao basis"
  functions       =    60
  atoms           =     2
  closed shells   =     3
  open shells     =     0
  charge          =   0.00
  wavefunction    = RHF 
  input vectors   = atomic
  output vectors  = ./Li2-REMOVE.movecs
  use symmetry    = F
  symmetry adapt  = F


 Summary of "ao basis" -> "ao basis" (spherical)
 ------------------------------------------------------------------------------
       Tag                 Description            Shells   Functions and Types
 ---------------- ------------------------------  ------  ---------------------
 Li                         cc-pvtz                 10       30   4s3p2d1f



 Forming initial guess at       0.0s


      Superposition of Atomic Density Guess
      -------------------------------------

 Sum of atomic energies:         -14.86535760

      Non-variational initial energy
      ------------------------------

 Total energy =     -14.831579
 1-e energy   =     -23.516723
 2-e energy   =       6.588978
 HOMO         =      -0.176816
 LUMO         =      -0.012682


 Starting SCF solution at       0.1s



 ----------------------------------------------
         Quadratically convergent ROHF

 Convergence threshold     :          1.000E-10
 Maximum no. of iterations :          200
 Final Fock-matrix accuracy:          1.000E-10
 ----------------------------------------------


 Integral file          = ./Li2-REMOVE.aoints.0
 Record size in doubles =    65536    No. of integs per rec  =    43688
 Max. records in memory =       54    Max. records in file   =  1545292
 No. of bits per label  =        8    No. of bits per value  =       64


 #quartets = 2.216D+04 #integrals = 3.711D+05 #direct =  0.0% #cached =100.0%


              iter       energy          gnorm     gmax       time
             ----- ------------------- --------- --------- --------
                 1      -14.8599057491  7.60D-02  3.76D-02      0.4
                 2      -14.8617239056  2.94D-03  1.80D-03      0.4
                 3      -14.8617282997  4.82D-06  3.32D-06      0.4
                 4      -14.8617282997  1.60D-11  7.56D-12      0.5


       Final RHF  results 
       ------------------ 

         Total SCF energy =    -14.861728299702
      One-electron energy =    -23.730753193386
      Two-electron energy =      6.772858330009
 Nuclear repulsion energy =      2.096166563675

        Time for solution =      0.3s


             Final eigenvalues
             -----------------

              1      
    1   -2.4523
    2   -2.4506
    3   -0.1897
    4    0.0101
    5    0.0255
    6    0.0255
    7    0.0404
    8    0.0573
    9    0.0573
   10    0.0667
   11    0.1085
   12    0.1110
   13    0.1110

                       ROHF Final Molecular Orbital Analysis
                       -------------------------------------

 Vector    2  Occ=2.000000D+00  E=-2.450572D+00
              MO Center= -3.8D-17, -9.9D-18, -5.3D-10, r^2= 1.4D+00
   Bfn.  Coefficient  Atom+Function         Bfn.  Coefficient  Atom+Function  
  ----- ------------  ---------------      ----- ------------  ---------------
     1      0.704897  1 Li s                 31     -0.704897  2 Li s          

 Vector    3  Occ=2.000000D+00  E=-1.896764D-01
              MO Center= -1.3D-15, -1.8D-15,  7.9D-14, r^2= 4.9D+00
   Bfn.  Coefficient  Atom+Function         Bfn.  Coefficient  Atom+Function  
  ----- ------------  ---------------      ----- ------------  ---------------
     3      0.302869  1 Li s                 33      0.302869  2 Li s          
     4      0.263915  1 Li s                 34      0.263915  2 Li s          
     2      0.208622  1 Li s                 32      0.208622  2 Li s          

 Vector    4  Occ=0.000000D+00  E= 1.013735D-02
              MO Center=  7.7D-16,  3.4D-15, -7.2D-12, r^2= 2.0D+01
   Bfn.  Coefficient  Atom+Function         Bfn.  Coefficient  Atom+Function  
  ----- ------------  ---------------      ----- ------------  ---------------
     4      1.715975  1 Li s                 34     -1.715975  2 Li s          
    13      0.937035  1 Li pz                43      0.937035  2 Li pz         
    10      0.371739  1 Li pz                40      0.371739  2 Li pz         

 Vector    5  Occ=0.000000D+00  E= 2.554543D-02
              MO Center= -1.5D-15,  1.6D-15,  2.8D-12, r^2= 1.6D+01
   Bfn.  Coefficient  Atom+Function         Bfn.  Coefficient  Atom+Function  
  ----- ------------  ---------------      ----- ------------  ---------------
    11      0.411609  1 Li px                41      0.411609  2 Li px         
    12     -0.242667  1 Li py                42     -0.242667  2 Li py         

 Vector    6  Occ=0.000000D+00  E= 2.554543D-02
              MO Center=  5.6D-15,  9.8D-15,  2.8D-12, r^2= 1.6D+01
   Bfn.  Coefficient  Atom+Function         Bfn.  Coefficient  Atom+Function  
  ----- ------------  ---------------      ----- ------------  ---------------
    12      0.411609  1 Li py                42      0.411609  2 Li py         
    11      0.242667  1 Li px                41      0.242667  2 Li px         

 Vector    7  Occ=0.000000D+00  E= 4.037723D-02
              MO Center= -1.5D-15, -5.4D-15, -4.0D-11, r^2= 2.5D+01
   Bfn.  Coefficient  Atom+Function         Bfn.  Coefficient  Atom+Function  
  ----- ------------  ---------------      ----- ------------  ---------------
    13      1.161980  1 Li pz                43     -1.161980  2 Li pz         
     4     -0.719936  1 Li s                 34     -0.719936  2 Li s          
     3      0.339750  1 Li s                 33      0.339750  2 Li s          

 Vector    8  Occ=0.000000D+00  E= 5.732152D-02
              MO Center= -1.1D-16, -4.1D-15, -3.3D-12, r^2= 2.7D+01
   Bfn.  Coefficient  Atom+Function         Bfn.  Coefficient  Atom+Function  
  ----- ------------  ---------------      ----- ------------  ---------------
    12      1.938135  1 Li py                42     -1.938135  2 Li py         
     9     -0.423289  1 Li py                39      0.423289  2 Li py         

 Vector    9  Occ=0.000000D+00  E= 5.732152D-02
              MO Center=  1.3D-15,  5.8D-16, -3.3D-12, r^2= 2.7D+01
   Bfn.  Coefficient  Atom+Function         Bfn.  Coefficient  Atom+Function  
  ----- ------------  ---------------      ----- ------------  ---------------
    11      1.938135  1 Li px                41     -1.938135  2 Li px         
     8     -0.423289  1 Li px                38      0.423289  2 Li px         

 Vector   10  Occ=0.000000D+00  E= 6.674797D-02
              MO Center= -4.0D-16,  5.4D-15,  3.0D-11, r^2= 3.0D+01
   Bfn.  Coefficient  Atom+Function         Bfn.  Coefficient  Atom+Function  
  ----- ------------  ---------------      ----- ------------  ---------------
     4      8.672306  1 Li s                 34     -8.672306  2 Li s          
    13      2.478663  1 Li pz                43      2.478663  2 Li pz         
    10      1.355350  1 Li pz                40      1.355350  2 Li pz         
     3      0.582711  1 Li s                 33     -0.582711  2 Li s          
    21      0.361331  1 Li d  0              51     -0.361331  2 Li d  0       

 Vector   11  Occ=0.000000D+00  E= 1.085393D-01
              MO Center=  1.5D-14, -3.3D-14,  1.3D-11, r^2= 1.7D+01
   Bfn.  Coefficient  Atom+Function         Bfn.  Coefficient  Atom+Function  
  ----- ------------  ---------------      ----- ------------  ---------------
    13     -1.190532  1 Li pz                43      1.190532  2 Li pz         
     3      1.101037  1 Li s                 33      1.101037  2 Li s          
     4     -0.659244  1 Li s                 34     -0.659244  2 Li s          
    21     -0.365190  1 Li d  0              51     -0.365190  2 Li d  0       
    10      0.230229  1 Li pz                40     -0.230229  2 Li pz         

 Vector   12  Occ=0.000000D+00  E= 1.110011D-01
              MO Center= -3.2D-16,  7.4D-16,  1.3D-12, r^2= 1.5D+01
   Bfn.  Coefficient  Atom+Function         Bfn.  Coefficient  Atom+Function  
  ----- ------------  ---------------      ----- ------------  ---------------
     8      0.746814  1 Li px                38      0.746814  2 Li px         
    11     -0.606682  1 Li px                41     -0.606682  2 Li px         
     9      0.314322  1 Li py                39      0.314322  2 Li py         
    12     -0.255343  1 Li py                42     -0.255343  2 Li py         

 Vector   13  Occ=0.000000D+00  E= 1.110011D-01
              MO Center= -1.3D-14,  3.2D-14,  1.3D-12, r^2= 1.5D+01
   Bfn.  Coefficient  Atom+Function         Bfn.  Coefficient  Atom+Function  
  ----- ------------  ---------------      ----- ------------  ---------------
     9      0.746814  1 Li py                39      0.746814  2 Li py         
    12     -0.606682  1 Li py                42     -0.606682  2 Li py         
     8     -0.314322  1 Li px                38     -0.314322  2 Li px         
    11      0.255343  1 Li px                41      0.255343  2 Li px         

 Vector   14  Occ=0.000000D+00  E= 1.456459D-01
              MO Center= -1.5D-15, -1.2D-15, -1.5D-10, r^2= 1.3D+01
   Bfn.  Coefficient  Atom+Function         Bfn.  Coefficient  Atom+Function  
  ----- ------------  ---------------      ----- ------------  ---------------
     3      1.544186  1 Li s                 33      1.544186  2 Li s          
     4     -1.110090  1 Li s                 34     -1.110090  2 Li s          
    10     -1.063088  1 Li pz                40      1.063088  2 Li pz         
    13      0.521397  1 Li pz                43     -0.521397  2 Li pz         
    21     -0.253162  1 Li d  0              51     -0.253162  2 Li d  0       

 Vector   15  Occ=0.000000D+00  E= 1.608049D-01
              MO Center= -9.6D-16, -5.6D-16,  1.6D-10, r^2= 2.0D+01
   Bfn.  Coefficient  Atom+Function         Bfn.  Coefficient  Atom+Function  
  ----- ------------  ---------------      ----- ------------  ---------------
     4     14.167767  1 Li s                 34    -14.167767  2 Li s          
    10      5.585662  1 Li pz                40      5.585662  2 Li pz         
     3      2.441877  1 Li s                 33     -2.441877  2 Li s          
    13      2.272005  1 Li pz                43      2.272005  2 Li pz         
    21      0.847841  1 Li d  0              51     -0.847841  2 Li d  0       

 Vector   16  Occ=0.000000D+00  E= 1.697769D-01
              MO Center=  3.1D-16,  5.8D-16, -1.9D-13, r^2= 1.3D+01
   Bfn.  Coefficient  Atom+Function         Bfn.  Coefficient  Atom+Function  
  ----- ------------  ---------------      ----- ------------  ---------------
     8      1.219104  1 Li px                38     -1.219104  2 Li px         
     9     -1.194389  1 Li py                39      1.194389  2 Li py         
    11     -1.019562  1 Li px                41      1.019562  2 Li px         
    12      0.998892  1 Li py                42     -0.998892  2 Li py         

 Vector   17  Occ=0.000000D+00  E= 1.697769D-01
              MO Center= -9.6D-16, -2.2D-16, -2.0D-13, r^2= 1.3D+01
   Bfn.  Coefficient  Atom+Function         Bfn.  Coefficient  Atom+Function  
  ----- ------------  ---------------      ----- ------------  ---------------
     9      1.219104  1 Li py                39     -1.219104  2 Li py         
     8      1.194389  1 Li px                38     -1.194389  2 Li px         
    12     -1.019562  1 Li py                42      1.019562  2 Li py         
    11     -0.998892  1 Li px                41      0.998892  2 Li px         

 Vector   18  Occ=0.000000D+00  E= 2.168679D-01
              MO Center= -1.5D-15, -1.5D-15,  7.8D-13, r^2= 7.8D+00
   Bfn.  Coefficient  Atom+Function         Bfn.  Coefficient  Atom+Function  
  ----- ------------  ---------------      ----- ------------  ---------------
    23      0.641073  1 Li d  2              53      0.641073  2 Li d  2       
    19     -0.217236  1 Li d -2              49     -0.217236  2 Li d -2       

 Vector   19  Occ=0.000000D+00  E= 2.168679D-01
              MO Center= -2.0D-15,  2.6D-16,  7.7D-13, r^2= 7.8D+00
   Bfn.  Coefficient  Atom+Function         Bfn.  Coefficient  Atom+Function  
  ----- ------------  ---------------      ----- ------------  ---------------
    19      0.641073  1 Li d -2              49      0.641073  2 Li d -2       
    23      0.217236  1 Li d  2              53      0.217236  2 Li d  2       

 Vector   20  Occ=0.000000D+00  E= 2.577871D-01
              MO Center=  6.2D-17,  4.4D-16, -1.5D-11, r^2= 1.3D+01
   Bfn.  Coefficient  Atom+Function         Bfn.  Coefficient  Atom+Function  
  ----- ------------  ---------------      ----- ------------  ---------------
     4      4.716387  1 Li s                 34     -4.716387  2 Li s          
    13      1.212651  1 Li pz                43      1.212651  2 Li pz         
     3     -0.937674  1 Li s                 33      0.937674  2 Li s          
    21      0.825986  1 Li d  0              51     -0.825986  2 Li d  0       
     2     -0.323078  1 Li s                 32      0.323078  2 Li s          

 Vector   21  Occ=0.000000D+00  E= 2.668206D-01
              MO Center= -3.8D-18,  4.4D-16,  2.5D-13, r^2= 9.8D+00
   Bfn.  Coefficient  Atom+Function         Bfn.  Coefficient  Atom+Function  
  ----- ------------  ---------------      ----- ------------  ---------------
    20      0.840859  1 Li d -1              50     -0.840859  2 Li d -1       
     9     -0.438485  1 Li py                39     -0.438485  2 Li py         
    12      0.192944  1 Li py                42      0.192944  2 Li py         
    15     -0.167720  1 Li d -1              45      0.167720  2 Li d -1       

 Vector   22  Occ=0.000000D+00  E= 2.668206D-01
              MO Center= -3.1D-16, -2.4D-16,  2.4D-13, r^2= 9.8D+00
   Bfn.  Coefficient  Atom+Function         Bfn.  Coefficient  Atom+Function  
  ----- ------------  ---------------      ----- ------------  ---------------
    22      0.840859  1 Li d  1              52     -0.840859  2 Li d  1       
     8      0.438485  1 Li px                38      0.438485  2 Li px         
    11     -0.192944  1 Li px                41     -0.192944  2 Li px         
    17     -0.167720  1 Li d  1              47      0.167720  2 Li d  1       

 Vector   23  Occ=0.000000D+00  E= 2.867317D-01
              MO Center= -2.9D-15,  1.6D-15, -7.2D-13, r^2= 9.6D+00
   Bfn.  Coefficient  Atom+Function         Bfn.  Coefficient  Atom+Function  
  ----- ------------  ---------------      ----- ------------  ---------------
    23      1.108081  1 Li d  2              53     -1.108081  2 Li d  2       
    19      0.312964  1 Li d -2              49     -0.312964  2 Li d -2       
    18     -0.189556  1 Li d  2              48      0.189556  2 Li d  2       

 Vector   24  Occ=0.000000D+00  E= 2.867317D-01
              MO Center=  3.1D-15,  1.6D-15, -7.1D-13, r^2= 9.6D+00
   Bfn.  Coefficient  Atom+Function         Bfn.  Coefficient  Atom+Function  
  ----- ------------  ---------------      ----- ------------  ---------------
    19      1.108081  1 Li d -2              49     -1.108081  2 Li d -2       
    23     -0.312964  1 Li d  2              53      0.312964  2 Li d  2       
    14     -0.189556  1 Li d -2              44      0.189556  2 Li d -2       

 Vector   25  Occ=0.000000D+00  E= 3.191999D-01
              MO Center=  1.8D-16,  1.7D-17,  5.0D-12, r^2= 1.0D+01
   Bfn.  Coefficient  Atom+Function         Bfn.  Coefficient  Atom+Function  
  ----- ------------  ---------------      ----- ------------  ---------------
     3      1.408811  1 Li s                 33      1.408811  2 Li s          
    21     -1.401484  1 Li d  0              51     -1.401484  2 Li d  0       
    13     -0.707716  1 Li pz                43      0.707716  2 Li pz         
     4     -0.682318  1 Li s                 34     -0.682318  2 Li s          
    10     -0.357621  1 Li pz                40      0.357621  2 Li pz         

 Vector   26  Occ=0.000000D+00  E= 3.634591D-01
              MO Center= -2.8D-15, -4.1D-15, -5.4D-13, r^2= 1.2D+01
   Bfn.  Coefficient  Atom+Function         Bfn.  Coefficient  Atom+Function  
  ----- ------------  ---------------      ----- ------------  ---------------
     9      3.659537  1 Li py                39     -3.659537  2 Li py         
    20      2.582525  1 Li d -1              50      2.582525  2 Li d -1       
     8     -1.870262  1 Li px                38      1.870262  2 Li px         
    22      1.319839  1 Li d  1              52      1.319839  2 Li d  1       
    12     -0.522497  1 Li py                42      0.522497  2 Li py         

 Vector   27  Occ=0.000000D+00  E= 3.634591D-01
              MO Center=  1.8D-15, -4.4D-15, -5.5D-13, r^2= 1.2D+01
   Bfn.  Coefficient  Atom+Function         Bfn.  Coefficient  Atom+Function  
  ----- ------------  ---------------      ----- ------------  ---------------
     8      3.659537  1 Li px                38     -3.659537  2 Li px         
    22     -2.582525  1 Li d  1              52     -2.582525  2 Li d  1       
     9      1.870262  1 Li py                39     -1.870262  2 Li py         
    20      1.319839  1 Li d -1              50      1.319839  2 Li d -1       
    11     -0.522497  1 Li px                41      0.522497  2 Li px         

 Vector   28  Occ=0.000000D+00  E= 3.959649D-01
              MO Center=  4.5D-16, -2.8D-16, -5.3D-11, r^2= 1.2D+01
   Bfn.  Coefficient  Atom+Function         Bfn.  Coefficient  Atom+Function  
  ----- ------------  ---------------      ----- ------------  ---------------
     4     10.873717  1 Li s                 34    -10.873717  2 Li s          
    10      7.725885  1 Li pz                40      7.725885  2 Li pz         
     3      7.166387  1 Li s                 33     -7.166387  2 Li s          
    21      1.978903  1 Li d  0              51     -1.978903  2 Li d  0       
    13      1.308315  1 Li pz                43      1.308315  2 Li pz         

 Vector   29  Occ=0.000000D+00  E= 4.599680D-01
              MO Center=  4.1D-16,  1.5D-15,  7.7D-12, r^2= 6.1D+00
   Bfn.  Coefficient  Atom+Function         Bfn.  Coefficient  Atom+Function  
  ----- ------------  ---------------      ----- ------------  ---------------
     6      0.911311  1 Li py                36      0.911311  2 Li py         
     9     -0.827012  1 Li py                39     -0.827012  2 Li py         
    12      0.324436  1 Li py                42      0.324436  2 Li py         
     5     -0.223486  1 Li px                35     -0.223486  2 Li px         
     8      0.202813  1 Li px                38      0.202813  2 Li px         

 Vector   30  Occ=0.000000D+00  E= 4.599680D-01
              MO Center= -1.1D-15, -2.5D-16,  7.6D-12, r^2= 6.1D+00
   Bfn.  Coefficient  Atom+Function         Bfn.  Coefficient  Atom+Function  
  ----- ------------  ---------------      ----- ------------  ---------------
     5      0.911311  1 Li px                35      0.911311  2 Li px         
     8     -0.827012  1 Li px                38     -0.827012  2 Li px         
    11      0.324436  1 Li px                41      0.324436  2 Li px         
     6      0.223486  1 Li py                36      0.223486  2 Li py         
     9     -0.202813  1 Li py                39     -0.202813  2 Li py         

 Vector   31  Occ=0.000000D+00  E= 4.679986D-01
              MO Center= -3.1D-16,  1.5D-15, -7.6D-12, r^2= 7.4D+00
   Bfn.  Coefficient  Atom+Function         Bfn.  Coefficient  Atom+Function  
  ----- ------------  ---------------      ----- ------------  ---------------
     8      0.833925  1 Li px                38     -0.833925  2 Li px         
     9     -0.735025  1 Li py                39      0.735025  2 Li py         
    11     -0.615294  1 Li px                41      0.615294  2 Li px         
     5     -0.571783  1 Li px                35      0.571783  2 Li px         
    12      0.542324  1 Li py                42     -0.542324  2 Li py         

 Vector   32  Occ=0.000000D+00  E= 4.679986D-01
              MO Center= -4.0D-16, -9.7D-16, -7.4D-12, r^2= 7.4D+00
   Bfn.  Coefficient  Atom+Function         Bfn.  Coefficient  Atom+Function  
  ----- ------------  ---------------      ----- ------------  ---------------
     9      0.833925  1 Li py                39     -0.833925  2 Li py         
     8      0.735025  1 Li px                38     -0.735025  2 Li px         
    12     -0.615294  1 Li py                42      0.615294  2 Li py         
     6     -0.571783  1 Li py                36      0.571783  2 Li py         
    11     -0.542324  1 Li px                41      0.542324  2 Li px         

 Vector   33  Occ=0.000000D+00  E= 4.820789D-01
              MO Center= -1.1D-15, -2.1D-15,  5.3D-11, r^2= 8.7D+00
   Bfn.  Coefficient  Atom+Function         Bfn.  Coefficient  Atom+Function  
  ----- ------------  ---------------      ----- ------------  ---------------
    10      2.105459  1 Li pz                40     -2.105459  2 Li pz         
     3     -1.663571  1 Li s                 33     -1.663571  2 Li s          
    21      1.349222  1 Li d  0              51      1.349222  2 Li d  0       
     7     -1.069634  1 Li pz                37      1.069634  2 Li pz         
     4      0.968330  1 Li s                 34      0.968330  2 Li s          

 Vector   34  Occ=0.000000D+00  E= 6.203785D-01
              MO Center= -8.9D-17, -7.8D-17,  1.9D-12, r^2= 5.8D+00
   Bfn.  Coefficient  Atom+Function         Bfn.  Coefficient  Atom+Function  
  ----- ------------  ---------------      ----- ------------  ---------------
     4      6.159249  1 Li s                 34     -6.159249  2 Li s          
     3      3.484594  1 Li s                 10      3.470108  1 Li pz         
    33     -3.484594  2 Li s                 40      3.470108  2 Li pz         
    21      1.583047  1 Li d  0              51     -1.583047  2 Li d  0       
    13      0.986862  1 Li pz                43      0.986862  2 Li pz         


 center of mass
 --------------
 x =   0.00000000 y =   0.00000000 z =   0.00000000

 moments of inertia (a.u.)
 ------------------
          64.668535390915           0.000000000000           0.000000000000
           0.000000000000          64.668535390915           0.000000000000
           0.000000000000           0.000000000000           0.000000000000

  Mulliken analysis of the total density
  --------------------------------------

    Atom       Charge   Shell Charges
 -----------   ------   -------------------------------------------------------
    1 Li   3     3.00   2.00 -0.02  0.47  0.46  0.04  0.05  0.01  0.00  0.00  0.00
    2 Li   3     3.00   2.00 -0.02  0.47  0.46  0.04  0.05  0.01  0.00  0.00  0.00

       Multipole analysis of the density wrt the origin
       ------------------------------------------------

     L   x y z        total         open         nuclear
     -   - - -        -----         ----         -------
     0   0 0 0     -0.000000      0.000000      6.000000

     1   1 0 0      0.000000      0.000000      0.000000
     1   0 1 0      0.000000      0.000000      0.000000
     1   0 0 1      0.000000      0.000000      0.000000

     2   2 0 0    -11.982595      0.000000      0.000000
     2   1 1 0      0.000000      0.000000      0.000000
     2   1 0 1      0.000000      0.000000      0.000000
     2   0 2 0    -11.982595      0.000000      0.000000
     2   0 1 1     -0.000000      0.000000      0.000000
     2   0 0 2     -3.365276      0.000000     27.651882


 Parallel integral file used       9 records with       0 large values

                   NWChem Extensible Many-Electron Theory Module
                   ---------------------------------------------

              ======================================================
                   This portion of the program was automatically
                  generated by a Tensor Contraction Engine (TCE).
                  The development of this portion of the program
                 and TCE was supported by US Department of Energy,
                Office of Science, Office of Basic Energy Science.
                      TCE is a product of Battelle and PNNL.
              Please cite: S.Hirata, J.Phys.Chem.A 107, 9887 (2003).
              ======================================================

                                    Li2-REMOVE


            General Information
            -------------------
      Number of processors :     1
         Wavefunction type : Restricted Hartree-Fock
          No. of electrons :     6
           Alpha electrons :     3
            Beta electrons :     3
           No. of orbitals :   120
            Alpha orbitals :    60
             Beta orbitals :    60
        Alpha frozen cores :     0
         Beta frozen cores :     0
     Alpha frozen virtuals :     0
      Beta frozen virtuals :     0
         Spin multiplicity : singlet 
    Number of AO functions :    60
       Number of AO shells :    20
        Use of symmetry is : off
      Symmetry adaption is : off
         Schwarz screening : 0.10D-09

          Correlation Information
          -----------------------
          Calculation type : Coupled-cluster singles & doubles                           
   Perturbative correction : none                                                        
            Max iterations :      200
        Residual threshold : 0.10D-05
     T(0) DIIS level shift : 0.00D+00
     L(0) DIIS level shift : 0.00D+00
     T(1) DIIS level shift : 0.00D+00
     L(1) DIIS level shift : 0.00D+00
     T(R) DIIS level shift : 0.00D+00
     T(I) DIIS level shift : 0.00D+00
   CC-T/L Amplitude update :  5-th order DIIS
                I/O scheme : Global Array Library
        L-threshold :  0.10D-05
        EOM-threshold :  0.10D-05
 no EOMCCSD initial starts read in
 TCE RESTART OPTIONS
 READ_INT:   F
 WRITE_INT:  F
 READ_TA:    F
 WRITE_TA:   F
 READ_XA:    F
 WRITE_XA:   F
 READ_IN3:   F
 WRITE_IN3:  F
 SLICE:      F
 D4D5:       F
 quantumc:   F
 qrotation:  F
 qducc:      T
 nacto:                         0
 nrotv:                         0
 nrot:                          0

            Memory Information
            ------------------
          Available GA space size is    1610609136 doubles
          Available MA space size is    1610610012 doubles

 Maximum block size supplied by input
 Maximum block size         5 doubles

 tile_dim =      5

 Block   Spin    Irrep     Size     Offset   Alpha
 -------------------------------------------------
   1    alpha     a      3 doubles       0       1
   2    beta      a      3 doubles       3       1
   3    alpha     a      4 doubles       6       3
   4    alpha     a      5 doubles      10       4
   5    alpha     a      5 doubles      15       5
   6    alpha     a      5 doubles      20       6
   7    alpha     a      4 doubles      25       7
   8    alpha     a      5 doubles      29       8
   9    alpha     a      5 doubles      34       9
  10    alpha     a      5 doubles      39      10
  11    alpha     a      4 doubles      44      11
  12    alpha     a      5 doubles      48      12
  13    alpha     a      5 doubles      53      13
  14    alpha     a      5 doubles      58      14
  15    beta      a      4 doubles      63       3
  16    beta      a      5 doubles      67       4
  17    beta      a      5 doubles      72       5
  18    beta      a      5 doubles      77       6
  19    beta      a      4 doubles      82       7
  20    beta      a      5 doubles      86       8
  21    beta      a      5 doubles      91       9
  22    beta      a      5 doubles      96      10
  23    beta      a      4 doubles     101      11
  24    beta      a      5 doubles     105      12
  25    beta      a      5 doubles     110      13
  26    beta      a      5 doubles     115      14

 Global array virtual files algorithm will be used

 Parallel file system coherency ......... OK

 Integral file          = ./Li2-REMOVE.aoints.0
 Record size in doubles =    65536    No. of integs per rec  =    43688
 Max. records in memory =       54    Max. records in file   =  1545292
 No. of bits per label  =        8    No. of bits per value  =       64


 #quartets = 2.216D+04 #integrals = 3.711D+05 #direct =  0.0% #cached =100.0%


 Fock matrix recomputed
 1-e file size   =             3600
 1-e file name   = ./Li2-REMOVE.f1
 Cpu & wall time / sec            0.2            0.3
 4-electron integrals stored in orbital form

 v2    file size   =          1905240
 4-index algorithm nr.  13 is used
 imaxsize =       30
 imaxsize ichop =        0
 Cpu & wall time / sec            4.8            4.9
 T1-number-of-tasks                   12

 t1 file size   =              171
 t1 file name   = ./Li2-REMOVE.t1
 t1 file handle =       -998
 T2-number-of-boxes                  222

 t2 file size   =            45090
 t2 file name   = ./Li2-REMOVE.t2
 t2 file handle =       -996

 CCSD iterations
 -----------------------------------------------------------------
 Iter          Residuum       Correlation     Cpu    Wall    V2*C2
 -----------------------------------------------------------------
    1   0.0908380918972  -0.0469232599407     1.9     2.0     0.6
    2   0.0282265666146  -0.0558894779161     1.9     2.0     0.6
    3   0.0153129965010  -0.0593013811478     1.9     2.0     0.6
    4   0.0093208458167  -0.0608801799256     1.9     2.0     0.6
    5   0.0058664296563  -0.0617478094557     1.9     2.0     0.6
 MICROCYCLE DIIS UPDATE:                    5                    5
    6   0.0008246571277  -0.0630291448316     1.9     2.0     0.5
    7   0.0004341828370  -0.0630264687580     1.9     2.0     0.6
    8   0.0002737901059  -0.0630310539260     1.9     2.0     0.6
    9   0.0001822730429  -0.0630348259773     1.9     2.0     0.5
   10   0.0001237191237  -0.0630381375913     1.9     2.0     0.6
 MICROCYCLE DIIS UPDATE:                   10                    5
   11   0.0000199400662  -0.0630460229709     1.9     2.0     0.6
   12   0.0000092783900  -0.0630476886641     1.8     2.0     0.6
   13   0.0000051838236  -0.0630485574479     1.8     2.0     0.6
   14   0.0000030282173  -0.0630489973866     1.8     2.0     0.6
   15   0.0000018333626  -0.0630492397034     1.8     2.0     0.5
 MICROCYCLE DIIS UPDATE:                   15                    5
   16   0.0000004240485  -0.0630495673405     1.9     2.0     0.6
 -----------------------------------------------------------------
 Iterations converged
 CCSD correlation energy / hartree =        -0.063049567340505
 CCSD total energy / hartree       =       -14.924777867042620

 Singles contributions

 Doubles contributions
     5a   (alpha)     5a   (beta ) ---     3a   (alpha)     3a   (beta )       -0.1088216514
     6a   (alpha)     6a   (beta ) ---     3a   (alpha)     3a   (beta )       -0.1088216514
 Ground state specification:
 exp(T)|Ref>~(1+T)|Ref>
 ------- a(p)+/a(q) strings ----------

 singles norm

 doubles norm

 Reference string
  0.98836413552107705      :(1a)+ (2a)+ (3a)+ (1b)+ (2b)+ (3b)+ |0>

 Singles strings

 Doubles strings
 -0.10755541738023702      :(5a)+ (5b)+ (3b)  (3a)  (1a)+ (2a)+ (3a)+ (1b)+ (2b)+ (3b)+ |0>
 -0.10755541738023752      :(6a)+ (6b)+ (3b)  (3a)  (1a)+ (2a)+ (3a)+ (1b)+ (2b)+ (3b)+ |0>
 -------------------------------------
 enrep_tce =    2.0961665636747795     
  EHF(total)         =       -14.86172830
  Shift (HFtot-HFA)  =         0.00000000
 ALL OCCUPIED ORBITALS ARE ACTIVE IN DUCC --> NO SHIFT
 Number of active orbitals                   10
 Number of active alpha electrons                    3
 Number of active beta electrons                    3
  nos                     6
  nvs                   114
 noas                     3
 nobs                     3
 nvas                    57
 nvbs                    57
 nactv                     7
 From DUCC CCSD corr. ene.  -6.3049567340439344E-002
 From DUCC CCSD corr. ene.-e-part   8.3867566588506942E-002
 begin_one_electron_integrals
    1    1        -5.1391903623
    1    3         0.1365458249
    1    7         0.0166314602
    2    2        -5.1392466265
    2    4        -0.0629258547
    2   10         0.0721279210
    3    1         0.1365458249
    3    3        -1.5989275328
    3    7        -0.1772895500
    4    2        -0.0629258547
    4    4        -0.8741611868
    4   10         0.3018919337
    5    5        -0.9188269241
    6    6        -0.9188269241
    7    1         0.0166314602
    7    3        -0.1772895500
    7    7        -0.7551844676
    8    8        -0.6230032309
    9    9        -0.6230032309
   10    2         0.0721279210
   10    4         0.3018919337
   10   10        -0.7475836955
 end_one_electron_integrals
 begin_two_electron_integrals
    1    1    1    1        0.9326819870
    2    1    1    1       -0.0000000003
    2    2    1    1        0.9337382886
    2    1    2    1        0.7009162329
    2    2    2    1        0.0000000003
    2    2    2    2        0.9345653160
    3    1    1    1       -0.0691387108
    3    3    1    1        0.2956816517
    3    1    2    2       -0.0693129969
    3    2    2    1       -0.0727013282
    3    3    2    2        0.2955266973
    3    1    3    1        0.0077240944
    3    2    3    2        0.0077771504
    3    3    3    1       -0.0016135152
    3    3    3    3        0.2441211091
    4    2    1    1        0.0298445942
    4    4    1    1        0.1564474016
    4    1    2    1        0.0279959374
    4    2    2    2        0.0298793329
    4    3    2    1       -0.0355344037
    4    4    2    2        0.1564762428
    4    1    3    2       -0.0040100788
    4    2    3    1       -0.0039541524
    4    2    3    3        0.0026923280
    4    3    3    2        0.0018057928
    4    4    3    1       -0.0008558205
    4    4    3    3        0.1389564269
    4    1    4    1        0.0021723470
    4    2    4    2        0.0022064556
    4    3    4    1       -0.0000742323
    4    3    4    3        0.0151477709
    4    4    4    2       -0.0001303122
    4    4    4    4        0.1281229853
    5    5    1    1        0.1638775632
    5    5    2    2        0.1638626767
    5    5    3    1        0.0003378416
    5    5    3    3        0.1562221723
    5    5    4    2        0.0002841043
    5    5    4    4        0.1145739495
    5    1    5    1        0.0005663531
    5    2    5    2        0.0005031505
    5    3    5    1        0.0015224497
    5    3    5    3        0.0304503284
    5    4    5    2       -0.0004527423
    5    4    5    4        0.0070979835
    5    5    5    5        0.1359030257
    6    6    1    1        0.1638775632
    6    6    2    2        0.1638626767
    6    6    3    1        0.0003378416
    6    6    3    3        0.1562221723
    6    6    4    2        0.0002841043
    6    6    4    4        0.1145739495
    6    6    5    5        0.1217959926
    6    1    6    1        0.0005663531
    6    2    6    2        0.0005031505
    6    3    6    1        0.0015224497
    6    3    6    3        0.0304503284
    6    4    6    2       -0.0004527423
    6    4    6    4        0.0070979835
    6    5    6    5        0.0070535165
    6    6    6    6        0.1359030257
    7    1    1    1       -0.0116911647
    7    3    1    1        0.0376319723
    7    7    1    1        0.1387339279
    7    1    2    2       -0.0117407749
    7    2    2    1       -0.0148780888
    7    3    2    2        0.0375611851
    7    4    2    1        0.0245778802
    7    7    2    2        0.1387282859
    7    1    3    1        0.0024148265
    7    1    3    3        0.0016786499
    7    2    3    2        0.0023363292
    7    3    3    1        0.0003602093
    7    3    3    3        0.0258696932
    7    4    3    2       -0.0007463957
    7    7    3    1       -0.0001035301
    7    7    3    3        0.1270118264
    7    1    4    2       -0.0005700739
    7    1    4    4       -0.0005594349
    7    2    4    1       -0.0006256059
    7    2    4    3        0.0010224883
    7    3    4    2        0.0010118142
    7    3    4    4       -0.0000170532
    7    4    4    1       -0.0005628705
    7    4    4    3       -0.0194091321
    7    7    4    2        0.0001493781
    7    7    4    4        0.1216880613
    7    1    5    5        0.0003844146
    7    3    5    5        0.0107480589
    7    5    5    1        0.0001409661
    7    5    5    3        0.0000023400
    7    7    5    5        0.1051971583
    7    1    6    6        0.0003844146
    7    3    6    6        0.0107480589
    7    6    6    1        0.0001409661
    7    6    6    3        0.0000023400
    7    7    6    6        0.1051971583
    7    1    7    1        0.0010732783
    7    2    7    2        0.0009748322
    7    3    7    1        0.0010660875
    7    3    7    3        0.0155902536
    7    4    7    2       -0.0007948084
    7    4    7    4        0.0432255681
    7    5    7    5        0.0033191160
    7    6    7    6        0.0033191160
    7    7    7    1        0.0000490413
    7    7    7    3        0.0007830030
    7    7    7    7        0.1220744581
    8    8    1    1        0.1148107813
    8    5    2    1       -0.0093244696
    8    6    2    1        0.0155144868
    8    8    2    2        0.1148146710
    8    5    3    2        0.0002395552
    8    6    3    2       -0.0003985831
    8    8    3    1       -0.0000871796
    8    8    3    3        0.1119740166
    8    5    4    1        0.0001159487
    8    5    4    3        0.0061622128
    8    6    4    1       -0.0001929208
    8    6    4    3       -0.0102529767
    8    8    4    2       -0.0000246209
    8    8    4    4        0.1052265140
    8    1    5    2       -0.0001132798
    8    1    5    4        0.0000916541
    8    2    5    1       -0.0001218902
    8    2    5    3       -0.0002547713
    8    3    5    2       -0.0001823613
    8    3    5    4        0.0020098280
    8    4    5    1        0.0002664935
    8    4    5    3        0.0054319941
    8    7    5    2        0.0000587962
    8    7    5    4       -0.0034943034
    8    8    5    5        0.1013557554
    8    1    6    2        0.0001884801
    8    1    6    4       -0.0001524984
    8    2    6    1        0.0002028066
    8    2    6    3        0.0004239004
    8    3    6    2        0.0003034212
    8    3    6    4       -0.0033440455
    8    4    6    1       -0.0004434044
    8    4    6    3       -0.0090380048
    8    7    6    2       -0.0000978278
    8    7    6    4        0.0058139847
    8    8    6    5       -0.0038249846
    8    8    6    6        0.1054210623
    8    2    7    5       -0.0000187120
    8    2    7    6        0.0000311339
    8    4    7    5       -0.0027711886
    8    4    7    6        0.0046108327
    8    5    7    2        0.0002053684
    8    5    7    4       -0.0107300979
    8    6    7    2       -0.0003417014
    8    6    7    4        0.0178532366
    8    8    7    1       -0.0000573348
    8    8    7    3        0.0003270827
    8    8    7    7        0.1014052773
    8    1    8    1        0.0000831168
    8    2    8    2        0.0000878840
    8    3    8    1        0.0001627737
    8    3    8    3        0.0037542478
    8    4    8    2       -0.0001945652
    8    4    8    4        0.0151712772
    8    5    8    5        0.0064460676
    8    6    8    5       -0.0066971909
    8    6    8    6        0.0135640405
    8    7    8    1       -0.0000475197
    8    7    8    3       -0.0035360109
    8    7    8    7        0.0098508140
    8    8    8    8        0.1038514224
    9    9    1    1        0.1148107813
    9    5    2    1        0.0155144868
    9    6    2    1        0.0093244696
    9    9    2    2        0.1148146710
    9    5    3    2       -0.0003985831
    9    6    3    2       -0.0002395552
    9    9    3    1       -0.0000871796
    9    9    3    3        0.1119740166
    9    5    4    1       -0.0001929208
    9    5    4    3       -0.0102529767
    9    6    4    1       -0.0001159487
    9    6    4    3       -0.0061622128
    9    9    4    2       -0.0000246209
    9    9    4    4        0.1052265140
    9    1    5    2        0.0001884801
    9    1    5    4       -0.0001524984
    9    2    5    1        0.0002028066
    9    2    5    3        0.0004239004
    9    3    5    2        0.0003034212
    9    3    5    4       -0.0033440455
    9    4    5    1       -0.0004434044
    9    4    5    3       -0.0090380048
    9    7    5    2       -0.0000978278
    9    7    5    4        0.0058139847
    9    8    5    5       -0.0038249846
    9    9    5    5        0.1054210623
    9    1    6    2        0.0001132798
    9    1    6    4       -0.0000916541
    9    2    6    1        0.0001218902
    9    2    6    3        0.0002547713
    9    3    6    2        0.0001823613
    9    3    6    4       -0.0020098280
    9    4    6    1       -0.0002664935
    9    4    6    3       -0.0054319941
    9    7    6    2       -0.0000587962
    9    7    6    4        0.0034943034
    9    8    6    5        0.0020326535
    9    8    6    6        0.0038249846
    9    9    6    5        0.0038249846
    9    9    6    6        0.1013557554
    9    2    7    5        0.0000311339
    9    2    7    6        0.0000187120
    9    4    7    5        0.0046108327
    9    4    7    6        0.0027711886
    9    5    7    2       -0.0003417014
    9    5    7    4        0.0178532366
    9    6    7    2       -0.0002053684
    9    6    7    4        0.0107300979
    9    9    7    1       -0.0000573348
    9    9    7    3        0.0003270827
    9    9    7    7        0.1014052773
    9    5    8    5       -0.0066971909
    9    5    8    6        0.0087221557
    9    6    8    5       -0.0016041829
    9    6    8    6        0.0066971909
    9    9    8    8        0.0930166959
    9    1    9    1        0.0000831168
    9    2    9    2        0.0000878840
    9    3    9    1        0.0001627737
    9    3    9    3        0.0037542478
    9    4    9    2       -0.0001945652
    9    4    9    4        0.0151712772
    9    5    9    5        0.0135640405
    9    6    9    5        0.0066971909
    9    6    9    6        0.0064460676
    9    7    9    1       -0.0000475197
    9    7    9    3       -0.0035360109
    9    7    9    7        0.0098508140
    9    8    9    8        0.0054173633
    9    9    9    9        0.1038514224
   10    2    1    1       -0.0342982389
   10    4    1    1       -0.0583690338
   10   10    1    1        0.1445269247
   10    1    2    1       -0.0322727638
   10    2    2    2       -0.0343402457
   10    3    2    1        0.0354818418
   10    4    2    2       -0.0583904711
   10    7    2    1       -0.0020030993
   10   10    2    2        0.1445531165
   10    1    3    2        0.0046256507
   10    2    3    1        0.0045623457
   10    2    3    3       -0.0029487243
   10    3    3    2       -0.0018787084
   10    4    3    1        0.0007533556
   10    4    3    3       -0.0429105319
   10    7    3    2        0.0000411353
   10   10    3    1       -0.0008900112
   10   10    3    3        0.1265511824
   10    1    4    1       -0.0025233767
   10    1    4    3        0.0001169289
   10    2    4    2       -0.0025627059
   10    2    4    4        0.0001474909
   10    3    4    1        0.0002443678
   10    3    4    3       -0.0110245217
   10    4    4    2        0.0000006830
   10    4    4    4       -0.0210765373
   10    7    4    1        0.0001505701
   10    7    4    3       -0.0018130389
   10   10    4    2       -0.0000095427
   10   10    4    4        0.1137193946
   10    2    5    5       -0.0002792215
   10    4    5    5       -0.0244600557
   10    5    5    2        0.0004410565
   10    5    5    4       -0.0032905679
   10    8    5    1       -0.0001399555
   10    8    5    3       -0.0014572954
   10    9    5    1        0.0002328645
   10    9    5    3        0.0024247159
   10   10    5    5        0.1040685424
   10    2    6    6       -0.0002792215
   10    4    6    6       -0.0244600557
   10    6    6    2        0.0004410565
   10    6    6    4       -0.0032905679
   10    8    6    1        0.0002328645
   10    8    6    3        0.0024247159
   10    9    6    1        0.0001399555
   10    9    6    3        0.0014572954
   10   10    6    6        0.1040685424
   10    1    7    2        0.0007325130
   10    1    7    4        0.0005917484
   10    2    7    1        0.0006691132
   10    2    7    3       -0.0011138898
   10    2    7    7       -0.0001664327
   10    3    7    2       -0.0009616866
   10    3    7    4        0.0121141031
   10    4    7    1        0.0003917982
   10    4    7    3       -0.0037472647
   10    4    7    7       -0.0112273414
   10    7    7    2        0.0001580709
   10    7    7    4        0.0128076352
   10    8    7    5       -0.0006329996
   10    8    7    6        0.0010532142
   10    9    7    5        0.0010532142
   10    9    7    6        0.0006329996
   10   10    7    1       -0.0004741199
   10   10    7    3        0.0013863238
   10   10    7    7        0.1093210131
   10    1    8    5       -0.0001256274
   10    1    8    6        0.0002090248
   10    2    8    8        0.0000409815
   10    3    8    5       -0.0043309055
   10    3    8    6        0.0072059623
   10    4    8    8       -0.0112458827
   10    5    8    1       -0.0000891214
   10    5    8    3       -0.0011550759
   10    5    8    7        0.0004134083
   10    6    8    1        0.0001482844
   10    6    8    3        0.0019218691
   10    6    8    7       -0.0006878480
   10    7    8    5       -0.0027298752
   10    7    8    6        0.0045420936
   10    8    8    2        0.0001059151
   10    8    8    4        0.0014203820
   10   10    8    8        0.0956330869
   10    1    9    5        0.0002090248
   10    1    9    6        0.0001256274
   10    2    9    9        0.0000409815
   10    3    9    5        0.0072059623
   10    3    9    6        0.0043309055
   10    4    9    9       -0.0112458827
   10    5    9    1        0.0001482844
   10    5    9    3        0.0019218691
   10    5    9    7       -0.0006878480
   10    6    9    1        0.0000891214
   10    6    9    3        0.0011550759
   10    6    9    7       -0.0004134083
   10    7    9    5        0.0045420936
   10    7    9    6        0.0027298752
   10    9    9    2        0.0001059151
   10    9    9    4        0.0014203820
   10   10    9    9        0.0956330869
   10    1   10    1        0.0029307695
   10    2   10    2        0.0029746133
   10    3   10    1       -0.0002585162
   10    3   10    3        0.0110269214
   10    4   10    2       -0.0000019814
   10    4   10    4        0.0196584213
   10    5   10    5        0.0034160150
   10    6   10    6        0.0034160150
   10    7   10    1       -0.0001752564
   10    7   10    3       -0.0009195151
   10    7   10    7        0.0126368802
   10    8   10    8        0.0041763491
   10    9   10    9        0.0041763491
   10   10   10    2        0.0000077373
   10   10   10    4       -0.0146307650
   10   10   10   10        0.1063806968
 end_two_electron_integrals
 onebody.inp
     -5.1391903623     1
     -0.0000000000     2
     -5.1392466265     3
      0.1365458249     4
      0.0000000000     5
     -1.5989275328     6
      0.0000000000     7
     -0.0629258547     8
     -0.0000000000     9
     -0.8741611868    10
      0.0000000000    11
     -0.0000000000    12
     -0.0000000000    13
     -0.0000000000    14
     -0.9188269241    15
     -0.0000000000    16
     -0.0000000000    17
      0.0000000000    18
     -0.0000000000    19
      0.0000000000    20
     -0.9188269241    21
      0.0166314602    22
      0.0000000000    23
     -0.1772895500    24
      0.0000000000    25
      0.0000000000    26
     -0.0000000000    27
     -0.7551844676    28
      0.0000000000    29
     -0.0000000000    30
      0.0000000000    31
      0.0000000000    32
      0.0000000000    33
     -0.0000000000    34
      0.0000000000    35
     -0.6230032309    36
     -0.0000000000    37
     -0.0000000000    38
      0.0000000000    39
     -0.0000000000    40
     -0.0000000000    41
     -0.0000000000    42
      0.0000000000    43
      0.0000000000    44
     -0.6230032309    45
     -0.0000000000    46
      0.0721279210    47
      0.0000000000    48
      0.3018919337    49
      0.0000000000    50
     -0.0000000000    51
      0.0000000000    52
      0.0000000000    53
      0.0000000000    54
     -0.7475836955    55
 twobody.inp
    1    1    1    1        0.9326819870
    1    1    1    2       -0.0000000003
    1    1    1    3       -0.0691387108
    1    1    1    7       -0.0116911647
    1    1    2    1       -0.0000000003
    1    1    2    2        0.9337382886
    1    1    2    4        0.0298445942
    1    1    2   10       -0.0342982389
    1    1    3    1       -0.0691387108
    1    1    3    3        0.2956816517
    1    1    3    7        0.0376319723
    1    1    4    2        0.0298445942
    1    1    4    4        0.1564474016
    1    1    4   10       -0.0583690338
    1    1    5    5        0.1638775632
    1    1    6    6        0.1638775632
    1    1    7    1       -0.0116911647
    1    1    7    3        0.0376319723
    1    1    7    7        0.1387339279
    1    1    8    8        0.1148107813
    1    1    9    9        0.1148107813
    1    1   10    2       -0.0342982389
    1    1   10    4       -0.0583690338
    1    1   10   10        0.1445269247
    1    2    1    1       -0.0000000003
    1    2    1    2        0.7009162329
    1    2    1    4        0.0279959374
    1    2    1   10       -0.0322727638
    1    2    2    1        0.7010331016
    1    2    2    2        0.0000000003
    1    2    2    3       -0.0727013282
    1    2    2    7       -0.0148780888
    1    2    3    2       -0.0727021904
    1    2    3    4       -0.0355344037
    1    2    3   10        0.0354818418
    1    2    4    1        0.0279900209
    1    2    4    3       -0.0355390531
    1    2    4    7        0.0245778802
    1    2    5    8       -0.0093244696
    1    2    5    9        0.0155144868
    1    2    6    8        0.0155144868
    1    2    6    9        0.0093244696
    1    2    7    2       -0.0148814167
    1    2    7    4        0.0245799048
    1    2    7   10       -0.0020030993
    1    2    8    5       -0.0093240560
    1    2    8    6        0.0155137986
    1    2    9    5        0.0155137986
    1    2    9    6        0.0093240560
    1    2   10    1       -0.0322660536
    1    2   10    3        0.0354859559
    1    2   10    7       -0.0020012721
    1    3    1    1       -0.0691387108
    1    3    1    3        0.0077240944
    1    3    1    7        0.0024148265
    1    3    2    2       -0.0693129969
    1    3    2    4       -0.0039541524
    1    3    2   10        0.0045623457
    1    3    3    1        0.0098144979
    1    3    3    3       -0.0016135152
    1    3    3    7        0.0003602093
    1    3    4    2       -0.0043140751
    1    3    4    4       -0.0008558205
    1    3    4   10        0.0007533556
    1    3    5    5        0.0003378416
    1    3    6    6        0.0003378416
    1    3    7    1        0.0026877425
    1    3    7    3        0.0000142904
    1    3    7    7       -0.0001035301
    1    3    8    8       -0.0000871796
    1    3    9    9       -0.0000871796
    1    3   10    2        0.0048304745
    1    3   10    4        0.0007544929
    1    3   10   10       -0.0008900112
    1    4    1    2        0.0279959374
    1    4    1    4        0.0021723470
    1    4    1   10       -0.0025233767
    1    4    2    1        0.0279900209
    1    4    2    3       -0.0040100788
    1    4    2    7       -0.0006256059
    1    4    3    2       -0.0043674432
    1    4    3    4       -0.0000742323
    1    4    3   10        0.0002443678
    1    4    4    1        0.0016612997
    1    4    4    3        0.0001197406
    1    4    4    7       -0.0005628705
    1    4    5    8        0.0001159487
    1    4    5    9       -0.0001929208
    1    4    6    8       -0.0001929208
    1    4    6    9       -0.0001159487
    1    4    7    2       -0.0004533917
    1    4    7    4       -0.0005550570
    1    4    7   10        0.0001505701
    1    4    8    5        0.0001148900
    1    4    8    6       -0.0001911593
    1    4    9    5       -0.0001911593
    1    4    9    6       -0.0001148900
    1    4   10    1       -0.0019143516
    1    4   10    3       -0.0000151162
    1    4   10    7        0.0001570589
    1    5    1    5        0.0005663531
    1    5    2    8       -0.0001218902
    1    5    2    9        0.0002028066
    1    5    3    5        0.0015224497
    1    5    4    8        0.0002664935
    1    5    4    9       -0.0004434044
    1    5    5    1        0.0005361748
    1    5    5    3        0.0015640025
    1    5    5    7        0.0001409661
    1    5    7    5        0.0001619169
    1    5    8    2       -0.0001034096
    1    5    8    4        0.0002659329
    1    5    8   10       -0.0001399555
    1    5    9    2        0.0001720577
    1    5    9    4       -0.0004424715
    1    5    9   10        0.0002328645
    1    5   10    8       -0.0001405281
    1    5   10    9        0.0002338171
    1    6    1    6        0.0005663531
    1    6    2    8        0.0002028066
    1    6    2    9        0.0001218902
    1    6    3    6        0.0015224497
    1    6    4    8       -0.0004434044
    1    6    4    9       -0.0002664935
    1    6    6    1        0.0005361748
    1    6    6    3        0.0015640025
    1    6    6    7        0.0001409661
    1    6    7    6        0.0001619169
    1    6    8    2        0.0001720577
    1    6    8    4       -0.0004424715
    1    6    8   10        0.0002328645
    1    6    9    2        0.0001034096
    1    6    9    4       -0.0002659329
    1    6    9   10        0.0001399555
    1    6   10    8        0.0002338171
    1    6   10    9        0.0001405281
    1    7    1    1       -0.0116911647
    1    7    1    3        0.0024148265
    1    7    1    7        0.0010732783
    1    7    2    2       -0.0117407749
    1    7    2    4       -0.0005700739
    1    7    2   10        0.0006691132
    1    7    3    1        0.0026877425
    1    7    3    3        0.0016786499
    1    7    3    7        0.0010660875
    1    7    4    2       -0.0004011282
    1    7    4    4       -0.0005594349
    1    7    4   10        0.0003917982
    1    7    5    5        0.0003844146
    1    7    6    6        0.0003844146
    1    7    7    1        0.0008885391
    1    7    7    3        0.0010477037
    1    7    7    7        0.0000490413
    1    7    8    8       -0.0000573348
    1    7    9    9       -0.0000573348
    1    7   10    2        0.0004716302
    1    7   10    4        0.0003846029
    1    7   10   10       -0.0004741199
    1    8    1    8        0.0000831168
    1    8    2    5       -0.0001132798
    1    8    2    6        0.0001884801
    1    8    3    8        0.0001627737
    1    8    4    5        0.0000916541
    1    8    4    6       -0.0001524984
    1    8    5    2       -0.0000958502
    1    8    5    4        0.0000913228
    1    8    5   10       -0.0000891214
    1    8    6    2        0.0001594800
    1    8    6    4       -0.0001519472
    1    8    6   10        0.0001482844
    1    8    7    8       -0.0000475197
    1    8    8    1        0.0000732313
    1    8    8    3        0.0001228787
    1    8    8    7       -0.0000486210
    1    8   10    5       -0.0000894361
    1    8   10    6        0.0001488079
    1    9    1    9        0.0000831168
    1    9    2    5        0.0001884801
    1    9    2    6        0.0001132798
    1    9    3    9        0.0001627737
    1    9    4    5       -0.0001524984
    1    9    4    6       -0.0000916541
    1    9    5    2        0.0001594800
    1    9    5    4       -0.0001519472
    1    9    5   10        0.0001482844
    1    9    6    2        0.0000958502
    1    9    6    4       -0.0000913228
    1    9    6   10        0.0000891214
    1    9    7    9       -0.0000475197
    1    9    9    1        0.0000732313
    1    9    9    3        0.0001228787
    1    9    9    7       -0.0000486210
    1    9   10    5        0.0001488079
    1    9   10    6        0.0000894361
    1   10    1    2       -0.0322727638
    1   10    1    4       -0.0025233767
    1   10    1   10        0.0029307695
    1   10    2    1       -0.0322660536
    1   10    2    3        0.0046256507
    1   10    2    7        0.0007325130
    1   10    3    2        0.0048919225
    1   10    3    4        0.0001169289
    1   10    3   10       -0.0002585162
    1   10    4    1       -0.0019143516
    1   10    4    3       -0.0001180123
    1   10    4    7        0.0005917484
    1   10    5    8       -0.0001256274
    1   10    5    9        0.0002090248
    1   10    6    8        0.0002090248
    1   10    6    9        0.0001256274
    1   10    7    2        0.0005305265
    1   10    7    4        0.0005764776
    1   10    7   10       -0.0001752564
    1   10    8    5       -0.0001246066
    1   10    8    6        0.0002073263
    1   10    9    5        0.0002073263
    1   10    9    6        0.0001246066
    1   10   10    1        0.0022074509
    1   10   10    3        0.0000081674
    1   10   10    7       -0.0001863615
    2    1    1    1       -0.0000000003
    2    1    1    2        0.7010331016
    2    1    1    4        0.0279900209
    2    1    1   10       -0.0322660536
    2    1    2    1        0.7009162329
    2    1    2    2        0.0000000003
    2    1    2    3       -0.0727021904
    2    1    2    7       -0.0148814167
    2    1    3    2       -0.0727013282
    2    1    3    4       -0.0355390531
    2    1    3   10        0.0354859559
    2    1    4    1        0.0279959374
    2    1    4    3       -0.0355344037
    2    1    4    7        0.0245799048
    2    1    5    8       -0.0093240560
    2    1    5    9        0.0155137986
    2    1    6    8        0.0155137986
    2    1    6    9        0.0093240560
    2    1    7    2       -0.0148780888
    2    1    7    4        0.0245778802
    2    1    7   10       -0.0020012721
    2    1    8    5       -0.0093244696
    2    1    8    6        0.0155144868
    2    1    9    5        0.0155144868
    2    1    9    6        0.0093244696
    2    1   10    1       -0.0322727638
    2    1   10    3        0.0354818418
    2    1   10    7       -0.0020030993
    2    2    1    1        0.9337382886
    2    2    1    2        0.0000000003
    2    2    1    3       -0.0693129969
    2    2    1    7       -0.0117407749
    2    2    2    1        0.0000000003
    2    2    2    2        0.9345653160
    2    2    2    4        0.0298793329
    2    2    2   10       -0.0343402457
    2    2    3    1       -0.0693129969
    2    2    3    3        0.2955266973
    2    2    3    7        0.0375611851
    2    2    4    2        0.0298793329
    2    2    4    4        0.1564762428
    2    2    4   10       -0.0583904711
    2    2    5    5        0.1638626767
    2    2    6    6        0.1638626767
    2    2    7    1       -0.0117407749
    2    2    7    3        0.0375611851
    2    2    7    7        0.1387282859
    2    2    8    8        0.1148146710
    2    2    9    9        0.1148146710
    2    2   10    2       -0.0343402457
    2    2   10    4       -0.0583904711
    2    2   10   10        0.1445531165
    2    3    1    2       -0.0727013282
    2    3    1    4       -0.0040100788
    2    3    1   10        0.0046256507
    2    3    2    1       -0.0727021904
    2    3    2    3        0.0077771504
    2    3    2    7        0.0023363292
    2    3    3    2        0.0097986806
    2    3    3    4        0.0018057928
    2    3    3   10       -0.0018787084
    2    3    4    1       -0.0043674432
    2    3    4    3        0.0022265552
    2    3    4    7       -0.0007463957
    2    3    5    8        0.0002395552
    2    3    5    9       -0.0003985831
    2    3    6    8       -0.0003985831
    2    3    6    9       -0.0002395552
    2    3    7    2        0.0026049140
    2    3    7    4       -0.0006893810
    2    3    7   10        0.0000411353
    2    3    8    5        0.0002479108
    2    3    8    6       -0.0004124855
    2    3    9    5       -0.0004124855
    2    3    9    6       -0.0002479108
    2    3   10    1        0.0048919225
    2    3   10    3       -0.0022616248
    2    3   10    7        0.0000912374
    2    4    1    1        0.0298445942
    2    4    1    3       -0.0039541524
    2    4    1    7       -0.0005700739
    2    4    2    2        0.0298793329
    2    4    2    4        0.0022064556
    2    4    2   10       -0.0025627059
    2    4    3    1       -0.0043140751
    2    4    3    3        0.0026923280
    2    4    3    7        0.0010118142
    2    4    4    2        0.0016918402
    2    4    4    4       -0.0001303122
    2    4    4   10        0.0000006830
    2    4    5    5        0.0002841043
    2    4    6    6        0.0002841043
    2    4    7    1       -0.0004011282
    2    4    7    3        0.0009025665
    2    4    7    7        0.0001493781
    2    4    8    8       -0.0000246209
    2    4    9    9       -0.0000246209
    2    4   10    2       -0.0019489689
    2    4   10    4       -0.0000013155
    2    4   10   10       -0.0000095427
    2    5    1    8       -0.0001132798
    2    5    1    9        0.0001884801
    2    5    2    5        0.0005031505
    2    5    3    8       -0.0001823613
    2    5    3    9        0.0003034212
    2    5    4    5       -0.0004527423
    2    5    5    2        0.0004819927
    2    5    5    4       -0.0004533983
    2    5    5   10        0.0004410565
    2    5    7    8        0.0000587962
    2    5    7    9       -0.0000978278
    2    5    8    1       -0.0000958502
    2    5    8    3       -0.0001616152
    2    5    8    7        0.0000601840
    2    5    9    1        0.0001594800
    2    5    9    3        0.0002689030
    2    5    9    7       -0.0001001369
    2    5   10    5        0.0004381557
    2    6    1    8        0.0001884801
    2    6    1    9        0.0001132798
    2    6    2    6        0.0005031505
    2    6    3    8        0.0003034212
    2    6    3    9        0.0001823613
    2    6    4    6       -0.0004527423
    2    6    6    2        0.0004819927
    2    6    6    4       -0.0004533983
    2    6    6   10        0.0004410565
    2    6    7    8       -0.0000978278
    2    6    7    9       -0.0000587962
    2    6    8    1        0.0001594800
    2    6    8    3        0.0002689030
    2    6    8    7       -0.0001001369
    2    6    9    1        0.0000958502
    2    6    9    3        0.0001616152
    2    6    9    7       -0.0000601840
    2    6   10    6        0.0004381557
    2    7    1    2       -0.0148780888
    2    7    1    4       -0.0006256059
    2    7    1   10        0.0007325130
    2    7    2    1       -0.0148814167
    2    7    2    3        0.0023363292
    2    7    2    7        0.0009748322
    2    7    3    2        0.0026049140
    2    7    3    4        0.0010224883
    2    7    3   10       -0.0009616866
    2    7    4    1       -0.0004533917
    2    7    4    3        0.0008220142
    2    7    4    7       -0.0007948084
    2    7    5    8        0.0002053684
    2    7    5    9       -0.0003417014
    2    7    6    8       -0.0003417014
    2    7    6    9       -0.0002053684
    2    7    7    2        0.0008021700
    2    7    7    4       -0.0007842437
    2    7    7   10        0.0001580709
    2    7    8    5        0.0002059789
    2    7    8    6       -0.0003427172
    2    7    9    5       -0.0003427172
    2    7    9    6       -0.0002059789
    2    7   10    1        0.0005305265
    2    7   10    3       -0.0007610146
    2    7   10    7        0.0001688443
    2    8    1    5       -0.0001218902
    2    8    1    6        0.0002028066
    2    8    2    8        0.0000878840
    2    8    3    5       -0.0002547713
    2    8    3    6        0.0004239004
    2    8    4    8       -0.0001945652
    2    8    5    1       -0.0001034096
    2    8    5    3       -0.0002573788
    2    8    5    7       -0.0000187120
    2    8    6    1        0.0001720577
    2    8    6    3        0.0004282389
    2    8    6    7        0.0000311339
    2    8    7    5       -0.0000193183
    2    8    7    6        0.0000321428
    2    8    8    2        0.0000773368
    2    8    8    4       -0.0001950926
    2    8    8   10        0.0001059151
    2    8   10    8        0.0001055129
    2    9    1    5        0.0002028066
    2    9    1    6        0.0001218902
    2    9    2    9        0.0000878840
    2    9    3    5        0.0004239004
    2    9    3    6        0.0002547713
    2    9    4    9       -0.0001945652
    2    9    5    1        0.0001720577
    2    9    5    3        0.0004282389
    2    9    5    7        0.0000311339
    2    9    6    1        0.0001034096
    2    9    6    3        0.0002573788
    2    9    6    7        0.0000187120
    2    9    7    5        0.0000321428
    2    9    7    6        0.0000193183
    2    9    9    2        0.0000773368
    2    9    9    4       -0.0001950926
    2    9    9   10        0.0001059151
    2    9   10    9        0.0001055129
    2   10    1    1       -0.0342982389
    2   10    1    3        0.0045623457
    2   10    1    7        0.0006691132
    2   10    2    2       -0.0343402457
    2   10    2    4       -0.0025627059
    2   10    2   10        0.0029746133
    2   10    3    1        0.0048304745
    2   10    3    3       -0.0029487243
    2   10    3    7       -0.0011138898
    2   10    4    2       -0.0019489689
    2   10    4    4        0.0001474909
    2   10    4   10       -0.0000019814
    2   10    5    5       -0.0002792215
    2   10    6    6       -0.0002792215
    2   10    7    1        0.0004716302
    2   10    7    3       -0.0009856142
    2   10    7    7       -0.0001664327
    2   10    8    8        0.0000409815
    2   10    9    9        0.0000409815
    2   10   10    2        0.0022466619
    2   10   10    4        0.0000017481
    2   10   10   10        0.0000077373
    3    1    1    1       -0.0691387108
    3    1    1    3        0.0098144979
    3    1    1    7        0.0026877425
    3    1    2    2       -0.0693129969
    3    1    2    4       -0.0043140751
    3    1    2   10        0.0048304745
    3    1    3    1        0.0077240944
    3    1    3    3       -0.0016135152
    3    1    3    7        0.0000142904
    3    1    4    2       -0.0039541524
    3    1    4    4       -0.0008558205
    3    1    4   10        0.0007544929
    3    1    5    5        0.0003378416
    3    1    6    6        0.0003378416
    3    1    7    1        0.0024148265
    3    1    7    3        0.0003602093
    3    1    7    7       -0.0001035301
    3    1    8    8       -0.0000871796
    3    1    9    9       -0.0000871796
    3    1   10    2        0.0045623457
    3    1   10    4        0.0007533556
    3    1   10   10       -0.0008900112
    3    2    1    2       -0.0727021904
    3    2    1    4       -0.0043674432
    3    2    1   10        0.0048919225
    3    2    2    1       -0.0727013282
    3    2    2    3        0.0097986806
    3    2    2    7        0.0026049140
    3    2    3    2        0.0077771504
    3    2    3    4        0.0022265552
    3    2    3   10       -0.0022616248
    3    2    4    1       -0.0040100788
    3    2    4    3        0.0018057928
    3    2    4    7       -0.0006893810
    3    2    5    8        0.0002479108
    3    2    5    9       -0.0004124855
    3    2    6    8       -0.0004124855
    3    2    6    9       -0.0002479108
    3    2    7    2        0.0023363292
    3    2    7    4       -0.0007463957
    3    2    7   10        0.0000912374
    3    2    8    5        0.0002395552
    3    2    8    6       -0.0003985831
    3    2    9    5       -0.0003985831
    3    2    9    6       -0.0002395552
    3    2   10    1        0.0046256507
    3    2   10    3       -0.0018787084
    3    2   10    7        0.0000411353
    3    3    1    1        0.2956816517
    3    3    1    3       -0.0016135152
    3    3    1    7        0.0016786499
    3    3    2    2        0.2955266973
    3    3    2    4        0.0026923280
    3    3    2   10       -0.0029487243
    3    3    3    1       -0.0016135152
    3    3    3    3        0.2441211091
    3    3    3    7        0.0258696932
    3    3    4    2        0.0026923280
    3    3    4    4        0.1389564269
    3    3    4   10       -0.0429105319
    3    3    5    5        0.1562221723
    3    3    6    6        0.1562221723
    3    3    7    1        0.0016786499
    3    3    7    3        0.0258696932
    3    3    7    7        0.1270118264
    3    3    8    8        0.1119740166
    3    3    9    9        0.1119740166
    3    3   10    2       -0.0029487243
    3    3   10    4       -0.0429105319
    3    3   10   10        0.1265511824
    3    4    1    2       -0.0355344037
    3    4    1    4       -0.0000742323
    3    4    1   10        0.0001169289
    3    4    2    1       -0.0355390531
    3    4    2    3        0.0018057928
    3    4    2    7        0.0010224883
    3    4    3    2        0.0022265552
    3    4    3    4        0.0151477709
    3    4    3   10       -0.0110245217
    3    4    4    1        0.0001197406
    3    4    4    3        0.0150952139
    3    4    4    7       -0.0194091321
    3    4    5    8        0.0061622128
    3    4    5    9       -0.0102529767
    3    4    6    8       -0.0102529767
    3    4    6    9       -0.0061622128
    3    4    7    2        0.0008220142
    3    4    7    4       -0.0189274326
    3    4    7   10       -0.0018130389
    3    4    8    5        0.0061897951
    3    4    8    6       -0.0102988694
    3    4    9    5       -0.0102988694
    3    4    9    6       -0.0061897951
    3    4   10    1       -0.0001180123
    3    4   10    3       -0.0123969222
    3    4   10    7       -0.0012885293
    3    5    1    5        0.0015224497
    3    5    2    8       -0.0002547713
    3    5    2    9        0.0004239004
    3    5    3    5        0.0304503284
    3    5    4    8        0.0054319941
    3    5    4    9       -0.0090380048
    3    5    5    1        0.0015640025
    3    5    5    3        0.0218361543
    3    5    5    7        0.0000023400
    3    5    7    5        0.0020140118
    3    5    8    2       -0.0002573788
    3    5    8    4        0.0055708893
    3    5    8   10       -0.0014572954
    3    5    9    2        0.0004282389
    3    5    9    4       -0.0092691051
    3    5    9   10        0.0024247159
    3    5   10    8       -0.0013278662
    3    5   10    9        0.0022093656
    3    6    1    6        0.0015224497
    3    6    2    8        0.0004239004
    3    6    2    9        0.0002547713
    3    6    3    6        0.0304503284
    3    6    4    8       -0.0090380048
    3    6    4    9       -0.0054319941
    3    6    6    1        0.0015640025
    3    6    6    3        0.0218361543
    3    6    6    7        0.0000023400
    3    6    7    6        0.0020140118
    3    6    8    2        0.0004282389
[...]
   10    7    8    6        0.0045420936
   10    7    9    5        0.0045420936
   10    7    9    6        0.0027298752
   10    7   10    1       -0.0001752564
   10    7   10    3       -0.0009195151
   10    7   10    7        0.0126368802
   10    8    1    5       -0.0001405281
   10    8    1    6        0.0002338171
   10    8    2    8        0.0001055129
   10    8    3    5       -0.0013278662
   10    8    3    6        0.0022093656
   10    8    4    8        0.0014203820
   10    8    5    1       -0.0001399555
   10    8    5    3       -0.0014572954
   10    8    5    7       -0.0006329996
   10    8    6    1        0.0002328645
   10    8    6    3        0.0024247159
   10    8    6    7        0.0010532142
   10    8    7    5       -0.0006329996
   10    8    7    6        0.0010532142
   10    8    8    2        0.0001059151
   10    8    8    4        0.0014203820
   10    8    8   10        0.0041763491
   10    8   10    8        0.0041763491
   10    9    1    5        0.0002338171
   10    9    1    6        0.0001405281
   10    9    2    9        0.0001055129
   10    9    3    5        0.0022093656
   10    9    3    6        0.0013278662
   10    9    4    9        0.0014203820
   10    9    5    1        0.0002328645
   10    9    5    3        0.0024247159
   10    9    5    7        0.0010532142
   10    9    6    1        0.0001399555
   10    9    6    3        0.0014572954
   10    9    6    7        0.0006329996
   10    9    7    5        0.0010532142
   10    9    7    6        0.0006329996
   10    9    9    2        0.0001059151
   10    9    9    4        0.0014203820
   10    9    9   10        0.0041763491
   10    9   10    9        0.0041763491
   10   10    1    1        0.1445269247
   10   10    1    3       -0.0008900112
   10   10    1    7       -0.0004741199
   10   10    2    2        0.1445531165
   10   10    2    4       -0.0000095427
   10   10    2   10        0.0000077373
   10   10    3    1       -0.0008900112
   10   10    3    3        0.1265511824
   10   10    3    7        0.0013863238
   10   10    4    2       -0.0000095427
   10   10    4    4        0.1137193946
   10   10    4   10       -0.0146307650
   10   10    5    5        0.1040685424
   10   10    6    6        0.1040685424
   10   10    7    1       -0.0004741199
   10   10    7    3        0.0013863238
   10   10    7    7        0.1093210131
   10   10    8    8        0.0956330869
   10   10    9    9        0.0956330869
   10   10   10    2        0.0000077373
   10   10   10    4       -0.0146307650
   10   10   10   10        0.1063806968
 fcidump
      0.9326819870     1   1   1   1
     -0.0000000003     2   1   1   1
      0.7009162329     2   1   2   1
      0.9337382886     2   2   1   1
      0.0000000003     2   2   2   1
      0.9345653160     2   2   2   2
     -0.0691387108     3   1   1   1
     -0.0693129969     3   1   2   2
      0.0077240944     3   1   3   1
     -0.0727013282     3   2   2   1
      0.0077771504     3   2   3   2
      0.2956816517     3   3   1   1
      0.2955266973     3   3   2   2
     -0.0016135152     3   3   3   1
      0.2441211091     3   3   3   3
      0.0279959374     4   1   2   1
     -0.0040100788     4   1   3   2
      0.0021723470     4   1   4   1
      0.0298445942     4   2   1   1
      0.0298793329     4   2   2   2
     -0.0039541524     4   2   3   1
      0.0026923280     4   2   3   3
      0.0022064556     4   2   4   2
     -0.0355344037     4   3   2   1
      0.0018057928     4   3   3   2
     -0.0000742323     4   3   4   1
      0.0151477709     4   3   4   3
      0.1564474016     4   4   1   1
      0.1564762428     4   4   2   2
     -0.0008558205     4   4   3   1
      0.1389564269     4   4   3   3
     -0.0001303122     4   4   4   2
      0.1281229853     4   4   4   4
      0.0005663531     5   1   5   1
      0.0005031505     5   2   5   2
      0.0015224497     5   3   5   1
      0.0304503284     5   3   5   3
     -0.0004527423     5   4   5   2
      0.0070979835     5   4   5   4
      0.1638775632     5   5   1   1
      0.1638626767     5   5   2   2
      0.0003378416     5   5   3   1
      0.1562221723     5   5   3   3
      0.0002841043     5   5   4   2
      0.1145739495     5   5   4   4
      0.1359030257     5   5   5   5
      0.0005663531     6   1   6   1
      0.0005031505     6   2   6   2
      0.0015224497     6   3   6   1
      0.0304503284     6   3   6   3
     -0.0004527423     6   4   6   2
      0.0070979835     6   4   6   4
      0.0070535165     6   5   6   5
      0.1638775632     6   6   1   1
      0.1638626767     6   6   2   2
      0.0003378416     6   6   3   1
      0.1562221723     6   6   3   3
      0.0002841043     6   6   4   2
      0.1145739495     6   6   4   4
      0.1217959926     6   6   5   5
      0.1359030257     6   6   6   6
     -0.0116911647     7   1   1   1
     -0.0117407749     7   1   2   2
      0.0024148265     7   1   3   1
      0.0016786499     7   1   3   3
     -0.0005700739     7   1   4   2
     -0.0005594349     7   1   4   4
      0.0003844146     7   1   5   5
      0.0003844146     7   1   6   6
      0.0010732783     7   1   7   1
     -0.0148780888     7   2   2   1
      0.0023363292     7   2   3   2
     -0.0006256059     7   2   4   1
      0.0010224883     7   2   4   3
      0.0009748322     7   2   7   2
      0.0376319723     7   3   1   1
      0.0375611851     7   3   2   2
      0.0003602093     7   3   3   1
      0.0258696932     7   3   3   3
      0.0010118142     7   3   4   2
     -0.0000170532     7   3   4   4
      0.0107480589     7   3   5   5
      0.0107480589     7   3   6   6
      0.0010660875     7   3   7   1
      0.0155902536     7   3   7   3
      0.0245778802     7   4   2   1
     -0.0007463957     7   4   3   2
     -0.0005628705     7   4   4   1
     -0.0194091321     7   4   4   3
     -0.0007948084     7   4   7   2
      0.0432255681     7   4   7   4
      0.0001409661     7   5   5   1
      0.0000023400     7   5   5   3
      0.0033191160     7   5   7   5
      0.0001409661     7   6   6   1
      0.0000023400     7   6   6   3
      0.0033191160     7   6   7   6
      0.1387339279     7   7   1   1
      0.1387282859     7   7   2   2
     -0.0001035301     7   7   3   1
      0.1270118264     7   7   3   3
      0.0001493781     7   7   4   2
      0.1216880613     7   7   4   4
      0.1051971583     7   7   5   5
      0.1051971583     7   7   6   6
      0.0000490413     7   7   7   1
      0.0007830030     7   7   7   3
      0.1220744581     7   7   7   7
     -0.0001132798     8   1   5   2
      0.0000916541     8   1   5   4
      0.0001884801     8   1   6   2
     -0.0001524984     8   1   6   4
      0.0000831168     8   1   8   1
     -0.0001218902     8   2   5   1
     -0.0002547713     8   2   5   3
      0.0002028066     8   2   6   1
      0.0004239004     8   2   6   3
     -0.0000187120     8   2   7   5
      0.0000311339     8   2   7   6
      0.0000878840     8   2   8   2
     -0.0001823613     8   3   5   2
      0.0020098280     8   3   5   4
      0.0003034212     8   3   6   2
     -0.0033440455     8   3   6   4
      0.0001627737     8   3   8   1
      0.0037542478     8   3   8   3
      0.0002664935     8   4   5   1
      0.0054319941     8   4   5   3
     -0.0004434044     8   4   6   1
     -0.0090380048     8   4   6   3
     -0.0027711886     8   4   7   5
      0.0046108327     8   4   7   6
     -0.0001945652     8   4   8   2
      0.0151712772     8   4   8   4
     -0.0093244696     8   5   2   1
      0.0002395552     8   5   3   2
      0.0001159487     8   5   4   1
      0.0061622128     8   5   4   3
      0.0002053684     8   5   7   2
     -0.0107300979     8   5   7   4
      0.0064460676     8   5   8   5
      0.0155144868     8   6   2   1
     -0.0003985831     8   6   3   2
     -0.0001929208     8   6   4   1
     -0.0102529767     8   6   4   3
     -0.0003417014     8   6   7   2
      0.0178532366     8   6   7   4
     -0.0066971909     8   6   8   5
      0.0135640405     8   6   8   6
      0.0000587962     8   7   5   2
     -0.0034943034     8   7   5   4
     -0.0000978278     8   7   6   2
      0.0058139847     8   7   6   4
     -0.0000475197     8   7   8   1
     -0.0035360109     8   7   8   3
      0.0098508140     8   7   8   7
      0.1148107813     8   8   1   1
      0.1148146710     8   8   2   2
     -0.0000871796     8   8   3   1
      0.1119740166     8   8   3   3
     -0.0000246209     8   8   4   2
      0.1052265140     8   8   4   4
      0.1013557554     8   8   5   5
     -0.0038249846     8   8   6   5
      0.1054210623     8   8   6   6
     -0.0000573348     8   8   7   1
      0.0003270827     8   8   7   3
      0.1014052773     8   8   7   7
      0.1038514224     8   8   8   8
      0.0001884801     9   1   5   2
     -0.0001524984     9   1   5   4
      0.0001132798     9   1   6   2
     -0.0000916541     9   1   6   4
      0.0000831168     9   1   9   1
      0.0002028066     9   2   5   1
      0.0004239004     9   2   5   3
      0.0001218902     9   2   6   1
      0.0002547713     9   2   6   3
      0.0000311339     9   2   7   5
      0.0000187120     9   2   7   6
      0.0000878840     9   2   9   2
      0.0003034212     9   3   5   2
     -0.0033440455     9   3   5   4
      0.0001823613     9   3   6   2
     -0.0020098280     9   3   6   4
      0.0001627737     9   3   9   1
      0.0037542478     9   3   9   3
     -0.0004434044     9   4   5   1
     -0.0090380048     9   4   5   3
     -0.0002664935     9   4   6   1
     -0.0054319941     9   4   6   3
      0.0046108327     9   4   7   5
      0.0027711886     9   4   7   6
     -0.0001945652     9   4   9   2
      0.0151712772     9   4   9   4
      0.0155144868     9   5   2   1
     -0.0003985831     9   5   3   2
     -0.0001929208     9   5   4   1
     -0.0102529767     9   5   4   3
     -0.0003417014     9   5   7   2
      0.0178532366     9   5   7   4
     -0.0066971909     9   5   8   5
      0.0087221557     9   5   8   6
      0.0135640405     9   5   9   5
      0.0093244696     9   6   2   1
     -0.0002395552     9   6   3   2
     -0.0001159487     9   6   4   1
     -0.0061622128     9   6   4   3
     -0.0002053684     9   6   7   2
      0.0107300979     9   6   7   4
     -0.0016041829     9   6   8   5
      0.0066971909     9   6   8   6
      0.0066971909     9   6   9   5
      0.0064460676     9   6   9   6
     -0.0000978278     9   7   5   2
      0.0058139847     9   7   5   4
     -0.0000587962     9   7   6   2
      0.0034943034     9   7   6   4
     -0.0000475197     9   7   9   1
     -0.0035360109     9   7   9   3
      0.0098508140     9   7   9   7
     -0.0038249846     9   8   5   5
      0.0020326535     9   8   6   5
      0.0038249846     9   8   6   6
      0.0054173633     9   8   9   8
      0.1148107813     9   9   1   1
      0.1148146710     9   9   2   2
     -0.0000871796     9   9   3   1
      0.1119740166     9   9   3   3
     -0.0000246209     9   9   4   2
      0.1052265140     9   9   4   4
      0.1054210623     9   9   5   5
      0.0038249846     9   9   6   5
      0.1013557554     9   9   6   6
     -0.0000573348     9   9   7   1
      0.0003270827     9   9   7   3
      0.1014052773     9   9   7   7
      0.0930166959     9   9   8   8
      0.1038514224     9   9   9   9
     -0.0322727638    10   1   2   1
      0.0046256507    10   1   3   2
     -0.0025233767    10   1   4   1
      0.0001169289    10   1   4   3
      0.0007325130    10   1   7   2
      0.0005917484    10   1   7   4
     -0.0001256274    10   1   8   5
      0.0002090248    10   1   8   6
      0.0002090248    10   1   9   5
      0.0001256274    10   1   9   6
      0.0029307695    10   1  10   1
     -0.0342982389    10   2   1   1
     -0.0343402457    10   2   2   2
      0.0045623457    10   2   3   1
     -0.0029487243    10   2   3   3
     -0.0025627059    10   2   4   2
      0.0001474909    10   2   4   4
     -0.0002792215    10   2   5   5
     -0.0002792215    10   2   6   6
      0.0006691132    10   2   7   1
     -0.0011138898    10   2   7   3
     -0.0001664327    10   2   7   7
      0.0000409815    10   2   8   8
      0.0000409815    10   2   9   9
      0.0029746133    10   2  10   2
      0.0354818418    10   3   2   1
     -0.0018787084    10   3   3   2
      0.0002443678    10   3   4   1
     -0.0110245217    10   3   4   3
     -0.0009616866    10   3   7   2
      0.0121141031    10   3   7   4
     -0.0043309055    10   3   8   5
      0.0072059623    10   3   8   6
      0.0072059623    10   3   9   5
      0.0043309055    10   3   9   6
     -0.0002585162    10   3  10   1
      0.0110269214    10   3  10   3
     -0.0583690338    10   4   1   1
     -0.0583904711    10   4   2   2
      0.0007533556    10   4   3   1
     -0.0429105319    10   4   3   3
      0.0000006830    10   4   4   2
     -0.0210765373    10   4   4   4
     -0.0244600557    10   4   5   5
     -0.0244600557    10   4   6   6
      0.0003917982    10   4   7   1
     -0.0037472647    10   4   7   3
     -0.0112273414    10   4   7   7
     -0.0112458827    10   4   8   8
     -0.0112458827    10   4   9   9
     -0.0000019814    10   4  10   2
      0.0196584213    10   4  10   4
      0.0004410565    10   5   5   2
     -0.0032905679    10   5   5   4
     -0.0000891214    10   5   8   1
     -0.0011550759    10   5   8   3
      0.0004134083    10   5   8   7
      0.0001482844    10   5   9   1
      0.0019218691    10   5   9   3
     -0.0006878480    10   5   9   7
      0.0034160150    10   5  10   5
      0.0004410565    10   6   6   2
     -0.0032905679    10   6   6   4
      0.0001482844    10   6   8   1
      0.0019218691    10   6   8   3
     -0.0006878480    10   6   8   7
      0.0000891214    10   6   9   1
      0.0011550759    10   6   9   3
     -0.0004134083    10   6   9   7
      0.0034160150    10   6  10   6
     -0.0020030993    10   7   2   1
      0.0000411353    10   7   3   2
      0.0001505701    10   7   4   1
     -0.0018130389    10   7   4   3
      0.0001580709    10   7   7   2
      0.0128076352    10   7   7   4
     -0.0027298752    10   7   8   5
      0.0045420936    10   7   8   6
      0.0045420936    10   7   9   5
      0.0027298752    10   7   9   6
     -0.0001752564    10   7  10   1
     -0.0009195151    10   7  10   3
      0.0126368802    10   7  10   7
     -0.0001399555    10   8   5   1
     -0.0014572954    10   8   5   3
      0.0002328645    10   8   6   1
      0.0024247159    10   8   6   3
     -0.0006329996    10   8   7   5
      0.0010532142    10   8   7   6
      0.0001059151    10   8   8   2
      0.0014203820    10   8   8   4
      0.0041763491    10   8  10   8
      0.0002328645    10   9   5   1
      0.0024247159    10   9   5   3
      0.0001399555    10   9   6   1
      0.0014572954    10   9   6   3
      0.0010532142    10   9   7   5
      0.0006329996    10   9   7   6
      0.0001059151    10   9   9   2
      0.0014203820    10   9   9   4
      0.0041763491    10   9  10   9
      0.1445269247    10  10   1   1
      0.1445531165    10  10   2   2
     -0.0008900112    10  10   3   1
      0.1265511824    10  10   3   3
     -0.0000095427    10  10   4   2
      0.1137193946    10  10   4   4
      0.1040685424    10  10   5   5
      0.1040685424    10  10   6   6
     -0.0004741199    10  10   7   1
      0.0013863238    10  10   7   3
      0.1093210131    10  10   7   7
      0.0956330869    10  10   8   8
      0.0956330869    10  10   9   9
      0.0000077373    10  10  10   2
     -0.0146307650    10  10  10   4
      0.1063806968    10  10  10  10
     -5.1391903623     1   1   0   0
     -5.1392466265     2   2   0   0
      0.1365458249     3   1   0   0
     -1.5989275328     3   3   0   0
     -0.0629258547     4   2   0   0
     -0.8741611868     4   4   0   0
     -0.9188269241     5   5   0   0
     -0.9188269241     6   6   0   0
      0.0166314602     7   1   0   0
     -0.1772895500     7   3   0   0
     -0.7551844676     7   7   0   0
     -0.6230032309     8   8   0   0
     -0.6230032309     9   9   0   0
      0.0721279210    10   2   0   0
      0.3018919337    10   4   0   0
     -0.7475836955    10  10   0   0

 Parallel integral file used       9 records with       0 large values


 Task  times  cpu:      747.0s     wall:      751.6s


                                NWChem Input Module
                                -------------------


 Summary of allocated global arrays
-----------------------------------
  No active global arrays



                         GA Statistics for process    0
                         ------------------------------

       create   destroy   get      put      acc     scatter   gather  read&inc
calls: 2041     2041     3.19e+06 1.79e+04 1.28e+05    0        0     1.71e+05 
number of processes/call 1.00e+00 1.00e+00 1.00e+00 0.00e+00 0.00e+00
bytes total:             1.24e+10 9.88e+07 2.18e+08 0.00e+00 0.00e+00 1.37e+06
bytes remote:            0.00e+00 0.00e+00 0.00e+00 0.00e+00 0.00e+00 0.00e+00
Max memory consumed for GA by this process: 73662736 bytes

MA_summarize_allocated_blocks: starting scan ...
MA_summarize_allocated_blocks: scan completed: 0 heap blocks, 0 stack blocks
MA usage statistics:

	allocation statistics:
					      heap	     stack
					      ----	     -----
	current number of blocks	         0	         0
	maximum number of blocks	        17	        40
	current total bytes		         0	         0
	maximum total bytes		  28329720	8298725256
	maximum total K-bytes		     28330	   8298726
	maximum total M-bytes		        29	      8299


                                     CITATION
                                     --------
                Please cite the following reference when publishing
                           results obtained with NWChem:

                 M. Valiev, E.J. Bylaska, N. Govind, K. Kowalski,
              T.P. Straatsma, H.J.J. van Dam, D. Wang, J. Nieplocha,
                        E. Apra, T.L. Windus, W.A. de Jong
                 "NWChem: a comprehensive and scalable open-source
                  solution for large scale molecular simulations"
                      Comput. Phys. Commun. 181, 1477 (2010)
                           doi:10.1016/j.cpc.2010.04.018

                                      AUTHORS
                                      -------
          E. Apra, E. J. Bylaska, W. A. de Jong, N. Govind, K. Kowalski,
       T. P. Straatsma, M. Valiev, H. J. J. van Dam, D. Wang, T. L. Windus,
        J. Hammond, J. Autschbach, K. Bhaskaran-Nair, J. Brabec, K. Lopata,
    S. A. Fischer, S. Krishnamoorthy, M. Jacquelin, W. Ma, M. Klemm, O. Villa,
      Y. Chen, V. Anisimov, F. Aquino, S. Hirata, M. T. Hackler, V. Konjkov,
            D. Mejia-Rodriguez, T. Risthaus, M. Malagoli, A. Marenich,
   A. Otero-de-la-Roza, J. Mullin, P. Nichols, R. Peverati, J. Pittner, Y. Zhao,
        P.-D. Fan, A. Fonari, M. J. Williamson, R. J. Harrison, J. R. Rehr,
      M. Dupuis, D. Silverstein, D. M. A. Smith, J. Nieplocha, V. Tipparaju,
    M. Krishnan, B. E. Van Kuiken, A. Vazquez-Mayagoitia, L. Jensen, M. Swart,
      Q. Wu, T. Van Voorhis, A. A. Auer, M. Nooijen, L. D. Crosby, E. Brown,
      G. Cisneros, G. I. Fann, H. Fruchtl, J. Garza, K. Hirao, R. A. Kendall,
      J. A. Nichols, K. Tsemekhman, K. Wolinski, J. Anchell, D. E. Bernholdt,
      P. Borowski, T. Clark, D. Clerc, H. Dachsel, M. J. O. Deegan, K. Dyall,
    D. Elwood, E. Glendening, M. Gutowski, A. C. Hess, J. Jaffe, B. G. Johnson,
     J. Ju, R. Kobayashi, R. Kutteh, Z. Lin, R. Littlefield, X. Long, B. Meng,
      T. Nakajima, S. Niu, L. Pollack, M. Rosing, K. Glaesemann, G. Sandrone,
      M. Stave, H. Taylor, G. Thomas, J. H. van Lenthe, A. T. Wong, Z. Zhang.

 Total times  cpu:      747.0s     wall:      751.6s
