 argument  1 = Li2-10_ORBITALS-ccpVTZ-2_9403.nw
  NWChem w/ OpenMP: maximum threads =    1



============================== echo of input deck ==============================
title "Li2-REMOVE"
echo
start Li2-REMOVE

memory total 24 gb

geometry  units angstrom
symmetry c1
Li  0    0    0
Li  0    0    2.9403
end

basis spherical
   * library cc-pvtz
end

scf
thresh 1.0e-10
tol2e 1.0e-10
rhf
singlet
maxiter 200
end

tce
   ccsd
   maxiter 200
   thresh 1.e-6
   2eorb
   2emet 13
   tilesize 5
end

set tce:qducc T
set tce:nactv 7

task tce energy

================================================================================


                                         
                                         


              Northwest Computational Chemistry Package (NWChem) 6.8
              ------------------------------------------------------


                    Environmental Molecular Sciences Laboratory
                       Pacific Northwest National Laboratory
                                Richland, WA 99352

                              Copyright (c) 1994-2018
                       Pacific Northwest National Laboratory
                            Battelle Memorial Institute

             NWChem is an open-source computational chemistry package
                        distributed under the terms of the
                      Educational Community License (ECL) 2.0
             A copy of the license is included with this distribution
                              in the LICENSE.TXT file

                                  ACKNOWLEDGMENT
                                  --------------

            This software and its documentation were developed at the
            EMSL at Pacific Northwest National Laboratory, a multiprogram
            national laboratory, operated for the U.S. Department of Energy
            by Battelle under Contract Number DE-AC05-76RL01830. Support
            for this work was provided by the Department of Energy Office
            of Biological and Environmental Research, Office of Basic
            Energy Sciences, and the Office of Advanced Scientific Computing.


           Job information
           ---------------

    hostname        = WE35263ubuntu
    program         = /home/baum612/code/NWChem/nwchem/bin/LINUX64/nwchem
    date            = Mon Apr  8 22:55:46 2019

    compiled        = Thu_Apr_04_14:53:19_2019
    source          = /home/baum612/code/NWChem/nwchem
    nwchem branch   = Development
    nwchem revision = nwchem_on_git-845-ga8f432451
    ga revision     = 5.6.5
    use scalapack   = F
    input           = Li2-10_ORBITALS-ccpVTZ-2_9403.nw
    prefix          = Li2-REMOVE.
    data base       = ./Li2-REMOVE.db
    status          = startup
    nproc           =        1
    time left       =     -1s



           Memory information
           ------------------

    heap     =  805306362 doubles =   6144.0 Mbytes
    stack    =  805306367 doubles =   6144.0 Mbytes
    global   = 1610612736 doubles =  12288.0 Mbytes (distinct from heap & stack)
    total    = 3221225465 doubles =  24576.0 Mbytes
    verify   = yes
    hardfail = no 


           Directory information
           ---------------------

  0 permanent = .
  0 scratch   = .




                                NWChem Input Module
                                -------------------


                                    Li2-REMOVE
                                    ----------

 Scaling coordinates for geometry "geometry" by  1.889725989
 (inverse scale =  0.529177249)

 Turning off AUTOSYM since
 SYMMETRY directive was detected!


          ------
          auto-z
          ------
  no constraints, skipping    0.0000000000000000     
  no constraints, skipping    0.0000000000000000     


                             Geometry "geometry" -> ""
                             -------------------------

 Output coordinates in angstroms (scale by  1.889725989 to convert to a.u.)

  No.       Tag          Charge          X              Y              Z
 ---- ---------------- ---------- -------------- -------------- --------------
    1 Li                   3.0000     0.00000000     0.00000000    -1.47015000
    2 Li                   3.0000     0.00000000     0.00000000     1.47015000

      Atomic Mass 
      ----------- 

      Li                 7.016000


 Effective nuclear repulsion energy (a.u.)       1.6197650719

            Nuclear Dipole moment (a.u.) 
            ----------------------------
        X                 Y               Z
 ---------------- ---------------- ----------------
     0.0000000000     0.0000000000     0.0000000000



                                Z-matrix (autoz)
                                -------- 

 Units are Angstrom for bonds and degrees for angles

      Type          Name      I     J     K     L     M      Value
      ----------- --------  ----- ----- ----- ----- ----- ----------
    1 Stretch                  1     2                       2.94030


            XYZ format geometry
            -------------------
     2
 geometry
 Li                    0.00000000     0.00000000    -1.47015000
 Li                    0.00000000     0.00000000     1.47015000



 Summary of "ao basis" -> "" (spherical)
 ------------------------------------------------------------------------------
       Tag                 Description            Shells   Functions and Types
 ---------------- ------------------------------  ------  ---------------------
 *                          cc-pvtz                   on all atoms 


                      Basis "ao basis" -> "ao basis" (spherical)
                      -----
  Li (Lithium)
  ------------
            Exponent  Coefficients 
       -------------- ---------------------------------------------------------
  1 S  5.98800000E+03  0.000133
  1 S  8.98900000E+02  0.001025
  1 S  2.05900000E+02  0.005272
  1 S  5.92400000E+01  0.020929
  1 S  1.98700000E+01  0.066340
  1 S  7.40600000E+00  0.165775
  1 S  2.93000000E+00  0.315038
  1 S  1.18900000E+00  0.393523
  1 S  4.79800000E-01  0.190870

  2 S  5.98800000E+03 -0.000021
  2 S  8.98900000E+02 -0.000161
  2 S  2.05900000E+02 -0.000820
  2 S  5.92400000E+01 -0.003326
  2 S  1.98700000E+01 -0.010519
  2 S  7.40600000E+00 -0.028097
  2 S  2.93000000E+00 -0.055936
  2 S  1.18900000E+00 -0.099237
  2 S  4.79800000E-01 -0.112189

  3 S  7.50900000E-02  1.000000

  4 S  2.83200000E-02  1.000000

  5 P  3.26600000E+00  0.008630
  5 P  6.51100000E-01  0.047538
  5 P  1.69600000E-01  0.209772

  6 P  5.57800000E-02  1.000000

  7 P  2.05000000E-02  1.000000

  8 D  1.87400000E-01  1.000000

  9 D  8.01000000E-02  1.000000

 10 F  1.82900000E-01  1.000000



 Summary of "ao basis" -> "ao basis" (spherical)
 ------------------------------------------------------------------------------
       Tag                 Description            Shells   Functions and Types
 ---------------- ------------------------------  ------  ---------------------
 Li                         cc-pvtz                 10       30   4s3p2d1f


                                 NWChem SCF Module
                                 -----------------


                                    Li2-REMOVE



  ao basis        = "ao basis"
  functions       =    60
  atoms           =     2
  closed shells   =     3
  open shells     =     0
  charge          =   0.00
  wavefunction    = RHF 
  input vectors   = atomic
  output vectors  = ./Li2-REMOVE.movecs
  use symmetry    = F
  symmetry adapt  = F


 Summary of "ao basis" -> "ao basis" (spherical)
 ------------------------------------------------------------------------------
       Tag                 Description            Shells   Functions and Types
 ---------------- ------------------------------  ------  ---------------------
 Li                         cc-pvtz                 10       30   4s3p2d1f



 Forming initial guess at       0.0s


      Superposition of Atomic Density Guess
      -------------------------------------

 Sum of atomic energies:         -14.86535760

      Non-variational initial energy
      ------------------------------

 Total energy =     -14.794567
 1-e energy   =     -22.640941
 2-e energy   =       6.226609
 HOMO         =      -0.154954
 LUMO         =      -0.025513


 Starting SCF solution at       0.1s



 ----------------------------------------------
         Quadratically convergent ROHF

 Convergence threshold     :          1.000E-10
 Maximum no. of iterations :          200
 Final Fock-matrix accuracy:          1.000E-10
 ----------------------------------------------


 Integral file          = ./Li2-REMOVE.aoints.0
 Record size in doubles =    65536    No. of integs per rec  =    43688
 Max. records in memory =       54    Max. records in file   =  1545290
 No. of bits per label  =        8    No. of bits per value  =       64


 #quartets = 2.216D+04 #integrals = 3.711D+05 #direct =  0.0% #cached =100.0%


              iter       energy          gnorm     gmax       time
             ----- ------------------- --------- --------- --------
                 1      -14.8697260049  6.35D-02  2.54D-02      0.4
                 2      -14.8710870968  2.21D-03  1.38D-03      0.4
                 3      -14.8710899885  3.42D-06  2.26D-06      0.4
                 4      -14.8710899885  1.06D-11  5.96D-12      0.5


       Final RHF  results 
       ------------------ 

         Total SCF energy =    -14.871089988482
      One-electron energy =    -22.794101398525
      Two-electron energy =      6.303246338112
 Nuclear repulsion energy =      1.619765071931

        Time for solution =      0.3s


             Final eigenvalues
             -----------------

              1      
    1   -2.4587
    2   -2.4586
    3   -0.1765
    4    0.0035
    5    0.0277
    6    0.0277
    7    0.0372
    8    0.0548
    9    0.0548
   10    0.0646
   11    0.1108
   12    0.1188
   13    0.1188

                       ROHF Final Molecular Orbital Analysis
                       -------------------------------------

 Vector    2  Occ=2.000000D+00  E=-2.458605D+00
              MO Center= -2.2D-18, -1.4D-17,  2.2D-11, r^2= 2.3D+00
   Bfn.  Coefficient  Atom+Function         Bfn.  Coefficient  Atom+Function  
  ----- ------------  ---------------      ----- ------------  ---------------
     1      0.705110  1 Li s                 31     -0.705110  2 Li s          

 Vector    3  Occ=2.000000D+00  E=-1.764755D-01
              MO Center=  1.3D-15, -2.1D-15,  8.7D-16, r^2= 5.6D+00
   Bfn.  Coefficient  Atom+Function         Bfn.  Coefficient  Atom+Function  
  ----- ------------  ---------------      ----- ------------  ---------------
     4      0.307055  1 Li s                 34      0.307055  2 Li s          
     3      0.279531  1 Li s                 33      0.279531  2 Li s          
     2      0.176509  1 Li s                 32      0.176509  2 Li s          

 Vector    4  Occ=0.000000D+00  E= 3.469034D-03
              MO Center= -7.8D-16,  2.1D-15, -2.7D-13, r^2= 2.0D+01
   Bfn.  Coefficient  Atom+Function         Bfn.  Coefficient  Atom+Function  
  ----- ------------  ---------------      ----- ------------  ---------------
    13      0.692316  1 Li pz                43      0.692316  2 Li pz         
     4      0.487016  1 Li s                 34     -0.487016  2 Li s          
     3     -0.183103  1 Li s                 33      0.183103  2 Li s          

 Vector    5  Occ=0.000000D+00  E= 2.770041D-02
              MO Center= -1.5D-15, -1.8D-15, -3.5D-14, r^2= 1.7D+01
   Bfn.  Coefficient  Atom+Function         Bfn.  Coefficient  Atom+Function  
  ----- ------------  ---------------      ----- ------------  ---------------
    12      0.426138  1 Li py                42      0.426138  2 Li py         
    11      0.289982  1 Li px                41      0.289982  2 Li px         

 Vector    6  Occ=0.000000D+00  E= 2.770041D-02
              MO Center= -4.8D-15,  3.5D-15, -5.0D-14, r^2= 1.7D+01
   Bfn.  Coefficient  Atom+Function         Bfn.  Coefficient  Atom+Function  
  ----- ------------  ---------------      ----- ------------  ---------------
    11      0.426138  1 Li px                41      0.426138  2 Li px         
    12     -0.289982  1 Li py                42     -0.289982  2 Li py         

 Vector    7  Occ=0.000000D+00  E= 3.719635D-02
              MO Center=  5.7D-15,  1.6D-16, -2.0D-12, r^2= 2.5D+01
   Bfn.  Coefficient  Atom+Function         Bfn.  Coefficient  Atom+Function  
  ----- ------------  ---------------      ----- ------------  ---------------
    13      0.920035  1 Li pz                43     -0.920035  2 Li pz         
     4     -0.603372  1 Li s                 34     -0.603372  2 Li s          
     3      0.198304  1 Li s                 33      0.198304  2 Li s          

 Vector    8  Occ=0.000000D+00  E= 5.475173D-02
              MO Center= -2.5D-15,  7.1D-16,  2.6D-14, r^2= 2.7D+01
   Bfn.  Coefficient  Atom+Function         Bfn.  Coefficient  Atom+Function  
  ----- ------------  ---------------      ----- ------------  ---------------
    11      1.449626  1 Li px                41     -1.449626  2 Li px         
    12     -0.343142  1 Li py                42      0.343142  2 Li py         
     8     -0.188458  1 Li px                38      0.188458  2 Li px         

 Vector    9  Occ=0.000000D+00  E= 5.475173D-02
              MO Center= -3.3D-15, -1.4D-14,  2.2D-14, r^2= 2.7D+01
   Bfn.  Coefficient  Atom+Function         Bfn.  Coefficient  Atom+Function  
  ----- ------------  ---------------      ----- ------------  ---------------
    12      1.449626  1 Li py                42     -1.449626  2 Li py         
    11      0.343142  1 Li px                41     -0.343142  2 Li px         
     9     -0.188458  1 Li py                39      0.188458  2 Li py         

 Vector   10  Occ=0.000000D+00  E= 6.461425D-02
              MO Center=  5.2D-15,  1.3D-14,  1.4D-12, r^2= 3.2D+01
   Bfn.  Coefficient  Atom+Function         Bfn.  Coefficient  Atom+Function  
  ----- ------------  ---------------      ----- ------------  ---------------
     4      5.104930  1 Li s                 34     -5.104930  2 Li s          
    13      2.155564  1 Li pz                43      2.155564  2 Li pz         
    10      0.570702  1 Li pz                40      0.570702  2 Li pz         
    21      0.298696  1 Li d  0              51     -0.298696  2 Li d  0       

 Vector   11  Occ=0.000000D+00  E= 1.108244D-01
              MO Center= -4.7D-15, -5.3D-15, -1.5D-13, r^2= 1.8D+01
   Bfn.  Coefficient  Atom+Function         Bfn.  Coefficient  Atom+Function  
  ----- ------------  ---------------      ----- ------------  ---------------
    13      1.115917  1 Li pz                43     -1.115917  2 Li pz         
    10     -0.679399  1 Li pz                40      0.679399  2 Li pz         
     3     -0.536523  1 Li s                 33     -0.536523  2 Li s          
     4      0.264897  1 Li s                 34      0.264897  2 Li s          
    21      0.184727  1 Li d  0              51      0.184727  2 Li d  0       

 Vector   12  Occ=0.000000D+00  E= 1.188407D-01
              MO Center=  1.8D-15,  1.4D-15, -9.8D-14, r^2= 1.6D+01
   Bfn.  Coefficient  Atom+Function         Bfn.  Coefficient  Atom+Function  
  ----- ------------  ---------------      ----- ------------  ---------------
     8      0.881107  1 Li px                38      0.881107  2 Li px         
    11     -0.670087  1 Li px                41     -0.670087  2 Li px         

 Vector   13  Occ=0.000000D+00  E= 1.188407D-01
              MO Center= -5.9D-16,  9.3D-15, -9.5D-14, r^2= 1.6D+01
   Bfn.  Coefficient  Atom+Function         Bfn.  Coefficient  Atom+Function  
  ----- ------------  ---------------      ----- ------------  ---------------
     9      0.881107  1 Li py                39      0.881107  2 Li py         
    12     -0.670087  1 Li py                42     -0.670087  2 Li py         

 Vector   14  Occ=0.000000D+00  E= 1.509151D-01
              MO Center=  2.6D-15, -2.7D-15,  1.5D-11, r^2= 1.3D+01
   Bfn.  Coefficient  Atom+Function         Bfn.  Coefficient  Atom+Function  
  ----- ------------  ---------------      ----- ------------  ---------------
     3      1.385960  1 Li s                 33      1.385960  2 Li s          
     4     -1.056120  1 Li s                 34     -1.056120  2 Li s          
    10     -0.463462  1 Li pz                40      0.463462  2 Li pz         
     2      0.315010  1 Li s                 32      0.315010  2 Li s          
    13      0.227972  1 Li pz                43     -0.227972  2 Li pz         

 Vector   15  Occ=0.000000D+00  E= 1.577033D-01
              MO Center= -6.0D-15,  1.8D-15, -1.5D-11, r^2= 1.9D+01
   Bfn.  Coefficient  Atom+Function         Bfn.  Coefficient  Atom+Function  
  ----- ------------  ---------------      ----- ------------  ---------------
     4      8.381652  1 Li s                 34     -8.381652  2 Li s          
    10      3.965525  1 Li pz                40      3.965525  2 Li pz         
    13      1.562766  1 Li pz                43      1.562766  2 Li pz         
    21      0.897501  1 Li d  0              51     -0.897501  2 Li d  0       

 Vector   16  Occ=0.000000D+00  E= 1.588668D-01
              MO Center=  7.3D-15,  1.6D-15,  1.2D-13, r^2= 1.5D+01
   Bfn.  Coefficient  Atom+Function         Bfn.  Coefficient  Atom+Function  
  ----- ------------  ---------------      ----- ------------  ---------------
    11     -1.175820  1 Li px                41      1.175820  2 Li px         
     8      1.095501  1 Li px                38     -1.095501  2 Li px         

 Vector   17  Occ=0.000000D+00  E= 1.588668D-01
              MO Center= -1.6D-15, -3.1D-15,  1.1D-13, r^2= 1.5D+01
   Bfn.  Coefficient  Atom+Function         Bfn.  Coefficient  Atom+Function  
  ----- ------------  ---------------      ----- ------------  ---------------
    12     -1.175820  1 Li py                42      1.175820  2 Li py         
     9      1.095501  1 Li py                39     -1.095501  2 Li py         

 Vector   18  Occ=0.000000D+00  E= 2.177534D-01
              MO Center= -8.3D-16, -1.7D-15, -1.1D-14, r^2= 8.6D+00
   Bfn.  Coefficient  Atom+Function         Bfn.  Coefficient  Atom+Function  
  ----- ------------  ---------------      ----- ------------  ---------------
    19      0.715872  1 Li d -2              49      0.715872  2 Li d -2       
    14     -0.151000  1 Li d -2              44     -0.151000  2 Li d -2       

 Vector   19  Occ=0.000000D+00  E= 2.177534D-01
              MO Center=  3.3D-16,  7.8D-16,  1.2D-14, r^2= 8.6D+00
   Bfn.  Coefficient  Atom+Function         Bfn.  Coefficient  Atom+Function  
  ----- ------------  ---------------      ----- ------------  ---------------
    23      0.715872  1 Li d  2              53      0.715872  2 Li d  2       
    18     -0.151000  1 Li d  2              48     -0.151000  2 Li d  2       

 Vector   20  Occ=0.000000D+00  E= 2.351874D-01
              MO Center= -5.3D-16, -5.5D-17,  4.3D-13, r^2= 1.4D+01
   Bfn.  Coefficient  Atom+Function         Bfn.  Coefficient  Atom+Function  
  ----- ------------  ---------------      ----- ------------  ---------------
     4      4.898210  1 Li s                 34     -4.898210  2 Li s          
    13      1.432502  1 Li pz                43      1.432502  2 Li pz         
    21      0.955967  1 Li d  0              51     -0.955967  2 Li d  0       
    10      0.844598  1 Li pz                40      0.844598  2 Li pz         
     3     -0.836579  1 Li s                 33      0.836579  2 Li s          

 Vector   21  Occ=0.000000D+00  E= 2.473261D-01
              MO Center= -3.4D-16,  7.2D-16,  9.6D-14, r^2= 1.0D+01
   Bfn.  Coefficient  Atom+Function         Bfn.  Coefficient  Atom+Function  
  ----- ------------  ---------------      ----- ------------  ---------------
    20      0.617548  1 Li d -1              50     -0.617548  2 Li d -1       
    22      0.417964  1 Li d  1              52     -0.417964  2 Li d  1       
     9     -0.274932  1 Li py                39     -0.274932  2 Li py         
     8      0.186077  1 Li px                38      0.186077  2 Li px         

 Vector   22  Occ=0.000000D+00  E= 2.473261D-01
              MO Center= -1.2D-15, -6.4D-16,  1.0D-13, r^2= 1.0D+01
   Bfn.  Coefficient  Atom+Function         Bfn.  Coefficient  Atom+Function  
  ----- ------------  ---------------      ----- ------------  ---------------
    22      0.617548  1 Li d  1              52     -0.617548  2 Li d  1       
    20     -0.417964  1 Li d -1              50      0.417964  2 Li d -1       
     8      0.274932  1 Li px                38      0.274932  2 Li px         
     9      0.186077  1 Li py                39      0.186077  2 Li py         

 Vector   23  Occ=0.000000D+00  E= 2.730338D-01
              MO Center=  1.1D-15, -1.6D-15,  1.2D-14, r^2= 1.0D+01
   Bfn.  Coefficient  Atom+Function         Bfn.  Coefficient  Atom+Function  
  ----- ------------  ---------------      ----- ------------  ---------------
    19      0.976785  1 Li d -2              49     -0.976785  2 Li d -2       
    14     -0.183373  1 Li d -2              44      0.183373  2 Li d -2       

 Vector   24  Occ=0.000000D+00  E= 2.730338D-01
              MO Center= -5.4D-16,  2.4D-15, -1.2D-14, r^2= 1.0D+01
   Bfn.  Coefficient  Atom+Function         Bfn.  Coefficient  Atom+Function  
  ----- ------------  ---------------      ----- ------------  ---------------
    23      0.976785  1 Li d  2              53     -0.976785  2 Li d  2       
    18     -0.183373  1 Li d  2              48      0.183373  2 Li d  2       

 Vector   25  Occ=0.000000D+00  E= 3.091135D-01
              MO Center= -8.9D-16,  1.1D-15, -3.3D-13, r^2= 1.2D+01
   Bfn.  Coefficient  Atom+Function         Bfn.  Coefficient  Atom+Function  
  ----- ------------  ---------------      ----- ------------  ---------------
    21     -1.136549  1 Li d  0              51     -1.136549  2 Li d  0       
     3      1.054809  1 Li s                 33      1.054809  2 Li s          
    13     -0.644954  1 Li pz                43      0.644954  2 Li pz         
     4     -0.481340  1 Li s                 34     -0.481340  2 Li s          
    16      0.225738  1 Li d  0              46      0.225738  2 Li d  0       

 Vector   26  Occ=0.000000D+00  E= 3.509813D-01
              MO Center=  3.5D-16,  7.4D-16, -9.3D-14, r^2= 1.1D+01
   Bfn.  Coefficient  Atom+Function         Bfn.  Coefficient  Atom+Function  
  ----- ------------  ---------------      ----- ------------  ---------------
    20      1.504388  1 Li d -1              50      1.504388  2 Li d -1       
     9      1.057482  1 Li py                39     -1.057482  2 Li py         
    22      1.004032  1 Li d  1              52      1.004032  2 Li d  1       
     8     -0.705766  1 Li px                38      0.705766  2 Li px         
    15     -0.209136  1 Li d -1              45     -0.209136  2 Li d -1       

 Vector   27  Occ=0.000000D+00  E= 3.509813D-01
              MO Center=  1.3D-15, -1.2D-15, -9.9D-14, r^2= 1.1D+01
   Bfn.  Coefficient  Atom+Function         Bfn.  Coefficient  Atom+Function  
  ----- ------------  ---------------      ----- ------------  ---------------
    22      1.504388  1 Li d  1              52      1.504388  2 Li d  1       
     8     -1.057482  1 Li px                38      1.057482  2 Li px         
    20     -1.004032  1 Li d -1              50     -1.004032  2 Li d -1       
     9     -0.705766  1 Li py                39      0.705766  2 Li py         
    17     -0.209136  1 Li d  1              47     -0.209136  2 Li d  1       

 Vector   28  Occ=0.000000D+00  E= 3.974687D-01
              MO Center= -3.3D-16,  8.5D-16,  5.1D-13, r^2= 1.3D+01
   Bfn.  Coefficient  Atom+Function         Bfn.  Coefficient  Atom+Function  
  ----- ------------  ---------------      ----- ------------  ---------------
     4      6.337215  1 Li s                 34     -6.337215  2 Li s          
    10      6.040963  1 Li pz                40      6.040963  2 Li pz         
     3      3.183590  1 Li s                 33     -3.183590  2 Li s          
    21      2.090522  1 Li d  0              51     -2.090522  2 Li d  0       
    13      0.726059  1 Li pz                43      0.726059  2 Li pz         

 Vector   29  Occ=0.000000D+00  E= 4.712532D-01
              MO Center=  6.3D-16,  6.2D-16, -4.3D-13, r^2= 7.1D+00
   Bfn.  Coefficient  Atom+Function         Bfn.  Coefficient  Atom+Function  
  ----- ------------  ---------------      ----- ------------  ---------------
     5      0.961946  1 Li px                35      0.961946  2 Li px         
     8     -0.914924  1 Li px                38     -0.914924  2 Li px         
    11      0.355435  1 Li px                41      0.355435  2 Li px         
     6      0.175189  1 Li py                36      0.175189  2 Li py         
     9     -0.166626  1 Li py                39     -0.166626  2 Li py         

 Vector   30  Occ=0.000000D+00  E= 4.712532D-01
              MO Center= -6.4D-16, -7.6D-16, -4.5D-13, r^2= 7.1D+00
   Bfn.  Coefficient  Atom+Function         Bfn.  Coefficient  Atom+Function  
  ----- ------------  ---------------      ----- ------------  ---------------
     6      0.961946  1 Li py                36      0.961946  2 Li py         
     9     -0.914924  1 Li py                39     -0.914924  2 Li py         
    12      0.355435  1 Li py                42      0.355435  2 Li py         
     5     -0.175189  1 Li px                35     -0.175189  2 Li px         
     8      0.166626  1 Li px                38      0.166626  2 Li px         

 Vector   31  Occ=0.000000D+00  E= 4.856530D-01
              MO Center= -7.3D-16,  5.9D-17,  4.2D-13, r^2= 7.9D+00
   Bfn.  Coefficient  Atom+Function         Bfn.  Coefficient  Atom+Function  
  ----- ------------  ---------------      ----- ------------  ---------------
     9     -1.145417  1 Li py                39      1.145417  2 Li py         
     8      1.124515  1 Li px                38     -1.124515  2 Li px         
     6      0.721163  1 Li py                36     -0.721163  2 Li py         
     5     -0.708003  1 Li px                35      0.708003  2 Li px         
    12      0.519981  1 Li py                42     -0.519981  2 Li py         

 Vector   32  Occ=0.000000D+00  E= 4.856530D-01
              MO Center= -3.3D-16,  1.4D-15,  4.8D-13, r^2= 7.9D+00
   Bfn.  Coefficient  Atom+Function         Bfn.  Coefficient  Atom+Function  
  ----- ------------  ---------------      ----- ------------  ---------------
     8      1.145417  1 Li px                38     -1.145417  2 Li px         
     9      1.124515  1 Li py                39     -1.124515  2 Li py         
     5     -0.721163  1 Li px                35      0.721163  2 Li px         
     6     -0.708003  1 Li py                36      0.708003  2 Li py         
    11     -0.519981  1 Li px                41      0.519981  2 Li px         

 Vector   33  Occ=0.000000D+00  E= 5.054550D-01
              MO Center=  9.7D-16, -2.0D-15, -2.1D-13, r^2= 6.8D+00
   Bfn.  Coefficient  Atom+Function         Bfn.  Coefficient  Atom+Function  
  ----- ------------  ---------------      ----- ------------  ---------------
     4      3.723806  1 Li s                 34     -3.723806  2 Li s          
    10      2.408051  1 Li pz                40      2.408051  2 Li pz         
     3      1.614750  1 Li s                 33     -1.614750  2 Li s          
    21      1.514057  1 Li d  0              51     -1.514057  2 Li d  0       
    13      0.775096  1 Li pz                43      0.775096  2 Li pz         


 center of mass
 --------------
 x =   0.00000000 y =   0.00000000 z =   0.00000000

 moments of inertia (a.u.)
 ------------------
         108.303014287899           0.000000000000           0.000000000000
           0.000000000000         108.303014287899           0.000000000000
           0.000000000000           0.000000000000           0.000000000000

  Mulliken analysis of the total density
  --------------------------------------

    Atom       Charge   Shell Charges
 -----------   ------   -------------------------------------------------------
    1 Li   3     3.00   2.00 -0.02  0.41  0.52  0.03  0.05  0.01  0.00  0.00  0.00
    2 Li   3     3.00   2.00 -0.02  0.41  0.52  0.03  0.05  0.01  0.00  0.00  0.00

       Multipole analysis of the density wrt the origin
       ------------------------------------------------

     L   x y z        total         open         nuclear
     -   - - -        -----         ----         -------
     0   0 0 0     -0.000000      0.000000      6.000000

     1   1 0 0     -0.000000      0.000000      0.000000
     1   0 1 0      0.000000      0.000000      0.000000
     1   0 0 1      0.000000      0.000000      0.000000

     2   2 0 0    -12.659986      0.000000      0.000000
     2   1 1 0      0.000000      0.000000      0.000000
     2   1 0 1     -0.000000      0.000000      0.000000
     2   0 2 0    -12.659986      0.000000      0.000000
     2   0 1 1      0.000000      0.000000      0.000000
     2   0 0 2     -0.964798      0.000000     46.309727


 Parallel integral file used       9 records with       0 large values

                   NWChem Extensible Many-Electron Theory Module
                   ---------------------------------------------

              ======================================================
                   This portion of the program was automatically
                  generated by a Tensor Contraction Engine (TCE).
                  The development of this portion of the program
                 and TCE was supported by US Department of Energy,
                Office of Science, Office of Basic Energy Science.
                      TCE is a product of Battelle and PNNL.
              Please cite: S.Hirata, J.Phys.Chem.A 107, 9887 (2003).
              ======================================================

                                    Li2-REMOVE


            General Information
            -------------------
      Number of processors :     1
         Wavefunction type : Restricted Hartree-Fock
          No. of electrons :     6
           Alpha electrons :     3
            Beta electrons :     3
           No. of orbitals :   120
            Alpha orbitals :    60
             Beta orbitals :    60
        Alpha frozen cores :     0
         Beta frozen cores :     0
     Alpha frozen virtuals :     0
      Beta frozen virtuals :     0
         Spin multiplicity : singlet 
    Number of AO functions :    60
       Number of AO shells :    20
        Use of symmetry is : off
      Symmetry adaption is : off
         Schwarz screening : 0.10D-09

          Correlation Information
          -----------------------
          Calculation type : Coupled-cluster singles & doubles                           
   Perturbative correction : none                                                        
            Max iterations :      200
        Residual threshold : 0.10D-05
     T(0) DIIS level shift : 0.00D+00
     L(0) DIIS level shift : 0.00D+00
     T(1) DIIS level shift : 0.00D+00
     L(1) DIIS level shift : 0.00D+00
     T(R) DIIS level shift : 0.00D+00
     T(I) DIIS level shift : 0.00D+00
   CC-T/L Amplitude update :  5-th order DIIS
                I/O scheme : Global Array Library
        L-threshold :  0.10D-05
        EOM-threshold :  0.10D-05
 no EOMCCSD initial starts read in
 TCE RESTART OPTIONS
 READ_INT:   F
 WRITE_INT:  F
 READ_TA:    F
 WRITE_TA:   F
 READ_XA:    F
 WRITE_XA:   F
 READ_IN3:   F
 WRITE_IN3:  F
 SLICE:      F
 D4D5:       F
 quantumc:   F
 qrotation:  F
 qducc:      T
 nacto:                         0
 nrotv:                         0
 nrot:                          0

            Memory Information
            ------------------
          Available GA space size is    1610609136 doubles
          Available MA space size is    1610610004 doubles

 Maximum block size supplied by input
 Maximum block size         5 doubles

 tile_dim =      5

 Block   Spin    Irrep     Size     Offset   Alpha
 -------------------------------------------------
   1    alpha     a      3 doubles       0       1
   2    beta      a      3 doubles       3       1
   3    alpha     a      4 doubles       6       3
   4    alpha     a      5 doubles      10       4
   5    alpha     a      5 doubles      15       5
   6    alpha     a      5 doubles      20       6
   7    alpha     a      4 doubles      25       7
   8    alpha     a      5 doubles      29       8
   9    alpha     a      5 doubles      34       9
  10    alpha     a      5 doubles      39      10
  11    alpha     a      4 doubles      44      11
  12    alpha     a      5 doubles      48      12
  13    alpha     a      5 doubles      53      13
  14    alpha     a      5 doubles      58      14
  15    beta      a      4 doubles      63       3
  16    beta      a      5 doubles      67       4
  17    beta      a      5 doubles      72       5
  18    beta      a      5 doubles      77       6
  19    beta      a      4 doubles      82       7
  20    beta      a      5 doubles      86       8
  21    beta      a      5 doubles      91       9
  22    beta      a      5 doubles      96      10
  23    beta      a      4 doubles     101      11
  24    beta      a      5 doubles     105      12
  25    beta      a      5 doubles     110      13
  26    beta      a      5 doubles     115      14

 Global array virtual files algorithm will be used

 Parallel file system coherency ......... OK

 Integral file          = ./Li2-REMOVE.aoints.0
 Record size in doubles =    65536    No. of integs per rec  =    43688
 Max. records in memory =       54    Max. records in file   =  1545290
 No. of bits per label  =        8    No. of bits per value  =       64


 #quartets = 2.216D+04 #integrals = 3.711D+05 #direct =  0.0% #cached =100.0%


 Fock matrix recomputed
 1-e file size   =             3600
 1-e file name   = ./Li2-REMOVE.f1
 Cpu & wall time / sec            0.2            0.3
 4-electron integrals stored in orbital form

 v2    file size   =          1905240
 4-index algorithm nr.  13 is used
 imaxsize =       30
 imaxsize ichop =        0
 Cpu & wall time / sec            4.7            4.7
 T1-number-of-tasks                   12

 t1 file size   =              171
 t1 file name   = ./Li2-REMOVE.t1
 t1 file handle =       -998
 T2-number-of-boxes                  222

 t2 file size   =            45090
 t2 file name   = ./Li2-REMOVE.t2
 t2 file handle =       -996

 CCSD iterations
 -----------------------------------------------------------------
 Iter          Residuum       Correlation     Cpu    Wall    V2*C2
 -----------------------------------------------------------------
    1   0.0885315641595  -0.0438687616570     1.8     2.0     0.6
    2   0.0251827965209  -0.0519893216151     1.8     2.0     0.5
    3   0.0126341223111  -0.0550512258012     1.8     2.0     0.6
    4   0.0072828407657  -0.0563444510593     1.9     2.0     0.5
    5   0.0043780746124  -0.0570219447911     1.9     2.0     0.6
 MICROCYCLE DIIS UPDATE:                    5                    5
    6   0.0006272102134  -0.0578842063446     1.9     2.0     0.6
    7   0.0003016394956  -0.0578883830892     1.9     2.0     0.6
    8   0.0001827524765  -0.0578905104447     1.8     2.0     0.6
    9   0.0001168330550  -0.0578922436639     1.8     1.9     0.5
   10   0.0000768417753  -0.0578938487515     1.9     2.0     0.6
 MICROCYCLE DIIS UPDATE:                   10                    5
   11   0.0000152150323  -0.0578972748573     1.8     2.0     0.5
   12   0.0000082222551  -0.0578980135262     1.8     2.0     0.5
   13   0.0000051431013  -0.0578984283013     1.9     2.0     0.5
   14   0.0000034251004  -0.0578986136578     1.8     2.0     0.6
   15   0.0000023360961  -0.0578987037104     1.9     2.0     0.5
 MICROCYCLE DIIS UPDATE:                   15                    5
   16   0.0000004831051  -0.0578988130739     1.8     2.0     0.5
 -----------------------------------------------------------------
 Iterations converged
 CCSD correlation energy / hartree =        -0.057898813073925
 CCSD total energy / hartree       =       -14.928988801555514

 Singles contributions

 Doubles contributions
 Ground state specification:
 exp(T)|Ref>~(1+T)|Ref>
 ------- a(p)+/a(q) strings ----------

 singles norm

 doubles norm

 Reference string
   1.0000000000000000      :(1a)+ (2a)+ (3a)+ (1b)+ (2b)+ (3b)+ |0>

 Singles strings

 Doubles strings
 -------------------------------------
 enrep_tce =    1.6197650719305119     
  EHF(total)         =       -14.87108999
  Shift (HFtot-HFA)  =         0.00000000
 ALL OCCUPIED ORBITALS ARE ACTIVE IN DUCC --> NO SHIFT
 Number of active orbitals                   10
 Number of active alpha electrons                    3
 Number of active beta electrons                    3
  nos                     6
  nvs                   114
 noas                     3
 nobs                     3
 nvas                    57
 nvbs                    57
 nactv                     7
 From DUCC CCSD corr. ene.  -5.7898813073903654E-002
 From DUCC CCSD corr. ene.-e-part   7.2222565464920799E-002
 begin_one_electron_integrals
    1    1        -4.9809758363
    1    3         0.1207767945
    1    7         0.0070134594
    2    2        -4.9810664313
    2    4        -0.0727737934
    2   10         0.0718542092
    3    1         0.1207767945
    3    3        -1.4431566529
    3    7        -0.1412091491
    4    2        -0.0727737934
    4    4        -0.9025213757
    4   10         0.2849485153
    5    5        -0.8471412906
    6    6        -0.8471412906
    7    1         0.0070134594
    7    3        -0.1412091491
    7    7        -0.7615863676
    8    8        -0.6365704690
    9    9        -0.6365704690
   10    2         0.0718542092
   10    4         0.2849485153
   10   10        -0.7069391017
 end_one_electron_integrals
 begin_two_electron_integrals
    1    1    1    1        0.9078528018
    2    2    1    1        0.9079582692
    2    1    2    1        0.7281138654
    2    2    2    2        0.9080321290
    3    1    1    1       -0.0603837891
    3    3    1    1        0.2632267910
    3    1    2    2       -0.0603951182
    3    2    2    1       -0.0618024618
    3    3    2    2        0.2632202692
    3    1    3    1        0.0055318850
    3    2    3    2        0.0055385503
    3    3    3    1       -0.0010825283
    3    3    3    3        0.2231636818
    4    2    1    1        0.0354495818
    4    4    1    1        0.1627868534
    4    1    2    1        0.0343189879
    4    2    2    2        0.0354481234
    4    3    2    1       -0.0451027086
    4    4    2    2        0.1627867989
    4    1    3    2       -0.0041880834
    4    2    3    1       -0.0041710625
    4    2    3    3        0.0023345643
    4    3    3    2        0.0014715959
    4    4    3    1       -0.0008637507
    4    4    3    3        0.1401788582
    4    1    4    1        0.0030882705
    4    2    4    2        0.0031022903
    4    3    4    1       -0.0002942195
    4    3    4    3        0.0196960838
    4    4    4    2       -0.0000499462
    4    4    4    4        0.1324922329
    5    5    1    1        0.1507764241
    5    5    2    2        0.1507772008
    5    5    3    1        0.0001780493
    5    5    3    3        0.1460258833
    5    5    4    2        0.0002416905
    5    5    4    4        0.1136727748
    5    1    5    1        0.0004096396
    5    2    5    2        0.0003902053
    5    3    5    1        0.0010741976
    5    3    5    3        0.0244875410
    5    4    5    2       -0.0004585087
    5    4    5    4        0.0077444840
    5    5    5    5        0.1286610653
    6    6    1    1        0.1507764241
    6    6    2    2        0.1507772008
    6    6    3    1        0.0001780493
    6    6    3    3        0.1460258833
    6    6    4    2        0.0002416905
    6    6    4    4        0.1136727748
    6    6    5    5        0.1153310780
    6    1    6    1        0.0004096396
    6    2    6    2        0.0003902053
    6    3    6    1        0.0010741976
    6    3    6    3        0.0244875410
    6    4    6    2       -0.0004585087
    6    4    6    4        0.0077444840
    6    5    6    5        0.0066649937
    6    6    6    6        0.1286610653
    7    1    1    1       -0.0060100735
    7    3    1    1        0.0285411378
    7    7    1    1        0.1394659825
    7    1    2    2       -0.0060067690
    7    2    2    1       -0.0078208424
    7    3    2    2        0.0285325931
    7    4    2    1        0.0313268570
    7    7    2    2        0.1394657270
    7    1    3    1        0.0011700336
    7    1    3    3        0.0016488832
    7    2    3    2        0.0011374339
    7    3    3    1        0.0004557348
    7    3    3    3        0.0243751531
    7    4    3    2       -0.0006215676
    7    7    3    1       -0.0000987548
    7    7    3    3        0.1276326785
    7    1    4    2       -0.0002819835
    7    1    4    4       -0.0006146767
    7    2    4    1       -0.0003064072
    7    2    4    3        0.0008322409
    7    3    4    2        0.0008618241
    7    3    4    4       -0.0010453279
    7    4    4    1       -0.0005706836
    7    4    4    3       -0.0225116255
    7    7    4    2        0.0000885297
    7    7    4    4        0.1231989750
    7    1    5    5        0.0003243027
    7    3    5    5        0.0093852564
    7    5    5    1        0.0000500469
    7    5    5    3        0.0000144097
    7    7    5    5        0.1043093848
    7    1    6    6        0.0003243027
    7    3    6    6        0.0093852564
    7    6    6    1        0.0000500469
    7    6    6    3        0.0000144097
    7    7    6    6        0.1043093848
    7    1    7    1        0.0006850974
    7    2    7    2        0.0006391292
    7    3    7    1        0.0011327728
    7    3    7    3        0.0172587780
    7    4    7    2       -0.0008587463
    7    4    7    4        0.0423358253
    7    5    7    5        0.0035806802
    7    6    7    6        0.0035806802
    7    7    7    1       -0.0000169342
    7    7    7    3        0.0003561831
    7    7    7    7        0.1212787039
    8    8    1    1        0.1172212538
    8    5    2    1        0.0084823800
    8    6    2    1        0.0221929152
    8    8    2    2        0.1172213901
    8    5    3    2       -0.0001163662
    8    6    3    2       -0.0003044552
    8    8    3    1       -0.0000842415
    8    8    3    3        0.1132822418
    8    5    4    1       -0.0000682654
    8    5    4    3       -0.0053560310
    8    6    4    1       -0.0001786066
    8    6    4    3       -0.0140132771
    8    8    4    2       -0.0000057826
    8    8    4    4        0.1066601976
    8    1    5    2        0.0000937004
    8    1    5    4       -0.0000975227
    8    2    5    1        0.0000971617
    8    2    5    3        0.0002081005
    8    3    5    2        0.0001467342
    8    3    5    4       -0.0017746660
    8    4    5    1       -0.0001809974
    8    4    5    3       -0.0039293797
    8    7    5    2       -0.0000450387
    8    7    5    4        0.0024008557
    8    8    5    5        0.0998562595
    8    1    6    2        0.0002451534
    8    1    6    4       -0.0002551539
    8    2    6    1        0.0002542096
    8    2    6    3        0.0005444647
    8    3    6    2        0.0003839087
    8    3    6    4       -0.0046431557
    8    4    6    1       -0.0004735535
    8    4    6    3       -0.0102806512
    8    7    6    2       -0.0001178372
    8    7    6    4        0.0062814901
    8    8    6    5        0.0030377343
    8    8    6    6        0.1066429941
    8    2    7    5        0.0000067695
    8    2    7    6        0.0000177114
    8    4    7    5        0.0017295466
    8    4    7    6        0.0045251075
    8    5    7    2       -0.0001257966
    8    5    7    4        0.0078898257
    8    6    7    2       -0.0003291285
    8    6    7    4        0.0206425830
    8    8    7    1       -0.0000560453
    8    8    7    3        0.0004218335
    8    8    7    7        0.1013665292
    8    1    8    1        0.0001642909
    8    2    8    2        0.0001692796
    8    3    8    1        0.0002642510
    8    3    8    3        0.0043101650
    8    4    8    2       -0.0003034930
    8    4    8    4        0.0148042454
    8    5    8    5        0.0050350841
    8    6    8    5        0.0059362316
    8    6    8    6        0.0182974779
    8    7    8    1       -0.0000797057
    8    7    8    3       -0.0038462832
    8    7    8    7        0.0087870709
    8    8    8    8        0.1042653372
    9    9    1    1        0.1172212538
    9    5    2    1        0.0221929152
    9    6    2    1       -0.0084823800
    9    9    2    2        0.1172213901
    9    5    3    2       -0.0003044552
    9    6    3    2        0.0001163662
    9    9    3    1       -0.0000842415
    9    9    3    3        0.1132822418
    9    5    4    1       -0.0001786066
    9    5    4    3       -0.0140132771
    9    6    4    1        0.0000682654
    9    6    4    3        0.0053560310
    9    9    4    2       -0.0000057826
    9    9    4    4        0.1066601976
    9    1    5    2        0.0002451534
    9    1    5    4       -0.0002551539
    9    2    5    1        0.0002542096
    9    2    5    3        0.0005444647
    9    3    5    2        0.0003839087
    9    3    5    4       -0.0046431557
    9    4    5    1       -0.0004735535
    9    4    5    3       -0.0102806512
    9    7    5    2       -0.0001178372
    9    7    5    4        0.0062814901
    9    8    5    5        0.0030377343
    9    9    5    5        0.1066429941
    9    1    6    2       -0.0000937004
    9    1    6    4        0.0000975227
    9    2    6    1       -0.0000971617
    9    2    6    3       -0.0002081005
    9    3    6    2       -0.0001467342
    9    3    6    4        0.0017746660
    9    4    6    1        0.0001809974
    9    4    6    3        0.0039293797
    9    7    6    2        0.0000450387
    9    7    6    4       -0.0024008557
    9    8    6    5        0.0033933673
    9    8    6    6       -0.0030377343
    9    9    6    5       -0.0030377343
    9    9    6    6        0.0998562595
    9    2    7    5        0.0000177114
    9    2    7    6       -0.0000067695
    9    4    7    5        0.0045251075
    9    4    7    6       -0.0017295466
    9    5    7    2       -0.0003291285
    9    5    7    4        0.0206425830
    9    6    7    2        0.0001257966
    9    6    7    4       -0.0078898257
    9    9    7    1       -0.0000560453
    9    9    7    3        0.0004218335
    9    9    7    7        0.1013665292
    9    5    8    5        0.0059362316
    9    5    8    6        0.0127650977
    9    6    8    5        0.0004972961
    9    6    8    6       -0.0059362316
    9    9    8    8        0.0935972003
    9    1    9    1        0.0001642909
    9    2    9    2        0.0001692796
    9    3    9    1        0.0002642510
    9    3    9    3        0.0043101650
    9    4    9    2       -0.0003034930
    9    4    9    4        0.0148042454
    9    5    9    5        0.0182974779
    9    6    9    5       -0.0059362316
    9    6    9    6        0.0050350841
    9    7    9    1       -0.0000797057
    9    7    9    3       -0.0038462832
    9    7    9    7        0.0087870709
    9    8    9    8        0.0053340684
    9    9    9    9        0.1042653372
   10    2    1    1       -0.0353015973
   10    4    1    1       -0.0564248530
   10   10    1    1        0.1373093827
   10    1    2    1       -0.0343912669
   10    2    2    2       -0.0353013779
   10    3    2    1        0.0392502925
   10    4    2    2       -0.0564251692
   10    7    2    1       -0.0005747940
   10   10    2    2        0.1373098555
   10    1    3    2        0.0042305549
   10    2    3    1        0.0042160814
   10    2    3    3       -0.0020525420
   10    3    3    2       -0.0013324484
   10    4    3    1        0.0006641535
   10    4    3    3       -0.0394650334
   10    7    3    2        0.0000634610
   10   10    3    1       -0.0006907875
   10   10    3    3        0.1196425628
   10    1    4    1       -0.0030838121
   10    1    4    3        0.0003666812
   10    2    4    2       -0.0030961177
   10    2    4    4        0.0000184625
   10    3    4    1        0.0004697897
   10    3    4    3       -0.0129298094
   10    4    4    2       -0.0001126777
   10    4    4    4       -0.0212365897
   10    7    4    1        0.0001363405
   10    7    4    3       -0.0034804314
   10   10    4    2        0.0000877298
   10   10    4    4        0.1127093690
   10    2    5    5       -0.0001673105
   10    4    5    5       -0.0215424151
   10    5    5    2        0.0003812252
   10    5    5    4       -0.0028643209
   10    8    5    1        0.0000936312
   10    8    5    3        0.0009736959
   10    9    5    1        0.0002449724
   10    9    5    3        0.0025475339
   10   10    5    5        0.0990888885
   10    2    6    6       -0.0001673105
   10    4    6    6       -0.0215424151
   10    6    6    2        0.0003812252
   10    6    6    4       -0.0028643209
   10    8    6    1        0.0002449724
   10    8    6    3        0.0025475339
   10    9    6    1       -0.0000936312
   10    9    6    3       -0.0009736959
   10   10    6    6        0.0990888885
   10    1    7    2        0.0003719820
   10    1    7    4        0.0004640518
   10    2    7    1        0.0003510445
   10    2    7    3       -0.0007325827
   10    2    7    7       -0.0000721581
   10    3    7    2       -0.0006008244
   10    3    7    4        0.0122430795
   10    4    7    1        0.0003226153
   10    4    7    3       -0.0035794316
   10    4    7    7       -0.0110319612
   10    7    7    2        0.0001831545
   10    7    7    4        0.0138103181
   10    8    7    5        0.0005572870
   10    8    7    6        0.0014580604
   10    9    7    5        0.0014580604
   10    9    7    6       -0.0005572870
   10   10    7    1       -0.0003683524
   10   10    7    3        0.0000573890
   10   10    7    7        0.1085470626
   10    1    8    5        0.0000571927
   10    1    8    6        0.0001496364
   10    2    8    8        0.0000251577
   10    3    8    5        0.0033107114
   10    3    8    6        0.0086619955
   10    4    8    8       -0.0113316990
   10    5    8    1        0.0000811785
   10    5    8    3        0.0008283723
   10    5    8    7       -0.0000648761
   10    6    8    1        0.0002123919
   10    6    8    3        0.0021673158
   10    6    8    7       -0.0001697388
   10    7    8    5        0.0024703138
   10    7    8    6        0.0064632173
   10    8    8    2        0.0001575446
   10    8    8    4        0.0011330810
   10   10    8    8        0.0946301246
   10    1    9    5        0.0001496364
   10    1    9    6       -0.0000571927
   10    2    9    9        0.0000251577
   10    3    9    5        0.0086619955
   10    3    9    6       -0.0033107114
   10    4    9    9       -0.0113316990
   10    5    9    1        0.0002123919
   10    5    9    3        0.0021673158
   10    5    9    7       -0.0001697388
   10    6    9    1       -0.0000811785
   10    6    9    3       -0.0008283723
   10    6    9    7        0.0000648761
   10    7    9    5        0.0064632173
   10    7    9    6       -0.0024703138
   10    9    9    2        0.0001575446
   10    9    9    4        0.0011330810
   10   10    9    9        0.0946301246
   10    1   10    1        0.0030847305
   10    2   10    2        0.0030951603
   10    3   10    1       -0.0004740511
   10    3   10    3        0.0117092625
   10    4   10    2        0.0001272843
   10    4   10    4        0.0184446700
   10    5   10    5        0.0031248703
   10    6   10    6        0.0031248703
   10    7   10    1       -0.0001146502
   10    7   10    3       -0.0002374488
   10    7   10    7        0.0140579279
   10    8   10    8        0.0042653658
   10    9   10    9        0.0042653658
   10   10   10    2       -0.0001041497
   10   10   10    4       -0.0109597463
   10   10   10   10        0.1039712529
 end_two_electron_integrals
 onebody.inp
     -4.9809758363     1
     -0.0000000000     2
     -4.9810664313     3
      0.1207767945     4
     -0.0000000000     5
     -1.4431566529     6
     -0.0000000000     7
     -0.0727737934     8
     -0.0000000000     9
     -0.9025213757    10
      0.0000000000    11
      0.0000000000    12
     -0.0000000000    13
     -0.0000000000    14
     -0.8471412906    15
     -0.0000000000    16
      0.0000000000    17
     -0.0000000000    18
     -0.0000000000    19
     -0.0000000000    20
     -0.8471412906    21
      0.0070134594    22
     -0.0000000000    23
     -0.1412091491    24
      0.0000000000    25
      0.0000000000    26
      0.0000000000    27
     -0.7615863676    28
     -0.0000000000    29
      0.0000000000    30
      0.0000000000    31
      0.0000000000    32
      0.0000000000    33
      0.0000000000    34
      0.0000000000    35
     -0.6365704690    36
     -0.0000000000    37
      0.0000000000    38
      0.0000000000    39
      0.0000000000    40
      0.0000000000    41
     -0.0000000000    42
     -0.0000000000    43
      0.0000000000    44
     -0.6365704690    45
      0.0000000000    46
      0.0718542092    47
      0.0000000000    48
      0.2849485153    49
      0.0000000000    50
     -0.0000000000    51
      0.0000000000    52
     -0.0000000000    53
     -0.0000000000    54
     -0.7069391017    55
 twobody.inp
    1    1    1    1        0.9078528018
    1    1    1    3       -0.0603837891
    1    1    1    7       -0.0060100735
    1    1    2    2        0.9079582692
    1    1    2    4        0.0354495818
    1    1    2   10       -0.0353015973
    1    1    3    1       -0.0603837891
    1    1    3    3        0.2632267910
    1    1    3    7        0.0285411378
    1    1    4    2        0.0354495818
    1    1    4    4        0.1627868534
    1    1    4   10       -0.0564248530
    1    1    5    5        0.1507764241
    1    1    6    6        0.1507764241
    1    1    7    1       -0.0060100735
    1    1    7    3        0.0285411378
    1    1    7    7        0.1394659825
    1    1    8    8        0.1172212538
    1    1    9    9        0.1172212538
    1    1   10    2       -0.0353015973
    1    1   10    4       -0.0564248530
    1    1   10   10        0.1373093827
    1    2    1    2        0.7281138654
    1    2    1    4        0.0343189879
    1    2    1   10       -0.0343912669
    1    2    2    1        0.7281296500
    1    2    2    3       -0.0618024618
    1    2    2    7       -0.0078208424
    1    2    3    2       -0.0618008523
    1    2    3    4       -0.0451027086
    1    2    3   10        0.0392502925
    1    2    4    1        0.0343168722
    1    2    4    3       -0.0451016556
    1    2    4    7        0.0313268570
    1    2    5    8        0.0084823800
    1    2    5    9        0.0221929152
    1    2    6    8        0.0221929152
    1    2    6    9       -0.0084823800
    1    2    7    2       -0.0078175251
    1    2    7    4        0.0313276966
    1    2    7   10       -0.0005747940
    1    2    8    5        0.0084823197
    1    2    8    6        0.0221927575
    1    2    9    5        0.0221927575
    1    2    9    6       -0.0084823197
    1    2   10    1       -0.0343894543
    1    2   10    3        0.0392498277
    1    2   10    7       -0.0005741050
    1    3    1    1       -0.0603837891
    1    3    1    3        0.0055318850
    1    3    1    7        0.0011700336
    1    3    2    2       -0.0603951182
    1    3    2    4       -0.0041710625
    1    3    2   10        0.0042160814
    1    3    3    1        0.0071545586
    1    3    3    3       -0.0010825283
    1    3    3    7        0.0004557348
    1    3    4    2       -0.0046569223
    1    3    4    4       -0.0008637507
    1    3    4   10        0.0006641535
    1    3    5    5        0.0001780493
    1    3    6    6        0.0001780493
    1    3    7    1        0.0013091744
    1    3    7    3        0.0002657168
    1    3    7    7       -0.0000987548
    1    3    8    8       -0.0000842415
    1    3    9    9       -0.0000842415
    1    3   10    2        0.0045250776
    1    3   10    4        0.0006667061
    1    3   10   10       -0.0006907875
    1    4    1    2        0.0343189879
    1    4    1    4        0.0030882705
    1    4    1   10       -0.0030838121
    1    4    2    1        0.0343168722
    1    4    2    3       -0.0041880834
    1    4    2    7       -0.0003064072
    1    4    3    2       -0.0046730216
    1    4    3    4       -0.0002942195
    1    4    3   10        0.0004697897
    1    4    4    1        0.0023466669
    1    4    4    3       -0.0000327474
    1    4    4    7       -0.0005706836
    1    4    5    8       -0.0000682654
    1    4    5    9       -0.0001786066
    1    4    6    8       -0.0001786066
    1    4    6    9        0.0000682654
    1    4    7    2       -0.0001883693
    1    4    7    4       -0.0005627888
    1    4    7   10        0.0001363405
    1    4    8    5       -0.0000674507
    1    4    8    6       -0.0001764749
    1    4    9    5       -0.0001764749
    1    4    9    6        0.0000674507
    1    4   10    1       -0.0023228575
    1    4   10    3        0.0001610230
    1    4   10    7        0.0001415525
    1    5    1    5        0.0004096396
    1    5    2    8        0.0000971617
    1    5    2    9        0.0002542096
    1    5    3    5        0.0010741976
    1    5    4    8       -0.0001809974
    1    5    4    9       -0.0004735535
    1    5    5    1        0.0003856903
    1    5    5    3        0.0010554168
    1    5    5    7        0.0000500469
    1    5    7    5        0.0000644253
    1    5    8    2        0.0000852773
    1    5    8    4       -0.0001800694
    1    5    8   10        0.0000936312
    1    5    9    2        0.0002231157
    1    5    9    4       -0.0004711253
    1    5    9   10        0.0002449724
    1    5   10    8        0.0000943509
    1    5   10    9        0.0002468555
    1    6    1    6        0.0004096396
    1    6    2    8        0.0002542096
    1    6    2    9       -0.0000971617
    1    6    3    6        0.0010741976
    1    6    4    8       -0.0004735535
    1    6    4    9        0.0001809974
    1    6    6    1        0.0003856903
    1    6    6    3        0.0010554168
    1    6    6    7        0.0000500469
    1    6    7    6        0.0000644253
    1    6    8    2        0.0002231157
    1    6    8    4       -0.0004711253
    1    6    8   10        0.0002449724
    1    6    9    2       -0.0000852773
    1    6    9    4        0.0001800694
    1    6    9   10       -0.0000936312
    1    6   10    8        0.0002468555
    1    6   10    9       -0.0000943509
    1    7    1    1       -0.0060100735
    1    7    1    3        0.0011700336
    1    7    1    7        0.0006850974
    1    7    2    2       -0.0060067690
    1    7    2    4       -0.0002819835
    1    7    2   10        0.0003510445
    1    7    3    1        0.0013091744
    1    7    3    3        0.0016488832
    1    7    3    7        0.0011327728
    1    7    4    2       -0.0001664297
    1    7    4    4       -0.0006146767
    1    7    4   10        0.0003226153
    1    7    5    5        0.0003243027
    1    7    6    6        0.0003243027
    1    7    7    1        0.0005821099
    1    7    7    3        0.0010816132
    1    7    7    7       -0.0000169342
    1    7    8    8       -0.0000560453
    1    7    9    9       -0.0000560453
    1    7   10    2        0.0002265168
    1    7   10    4        0.0003156931
    1    7   10   10       -0.0003683524
    1    8    1    8        0.0001642909
    1    8    2    5        0.0000937004
    1    8    2    6        0.0002451534
    1    8    3    8        0.0002642510
    1    8    4    5       -0.0000975227
    1    8    4    6       -0.0002551539
    1    8    5    2        0.0000822652
    1    8    5    4       -0.0000969757
    1    8    5   10        0.0000811785
    1    8    6    2        0.0002152349
    1    8    6    4       -0.0002537228
    1    8    6   10        0.0002123919
    1    8    7    8       -0.0000797057
    1    8    8    1        0.0001451439
    1    8    8    3        0.0002128753
    1    8    8    7       -0.0000813395
    1    8   10    5        0.0000814529
    1    8   10    6        0.0002131096
    1    9    1    9        0.0001642909
    1    9    2    5        0.0002451534
    1    9    2    6       -0.0000937004
    1    9    3    9        0.0002642510
    1    9    4    5       -0.0002551539
    1    9    4    6        0.0000975227
    1    9    5    2        0.0002152349
    1    9    5    4       -0.0002537228
    1    9    5   10        0.0002123919
    1    9    6    2       -0.0000822652
    1    9    6    4        0.0000969757
    1    9    6   10       -0.0000811785
    1    9    7    9       -0.0000797057
    1    9    9    1        0.0001451439
    1    9    9    3        0.0002128753
    1    9    9    7       -0.0000813395
    1    9   10    5        0.0002131096
    1    9   10    6       -0.0000814529
    1   10    1    2       -0.0343912669
    1   10    1    4       -0.0030838121
    1   10    1   10        0.0030847305
    1   10    2    1       -0.0343894543
    1   10    2    3        0.0042305549
    1   10    2    7        0.0003719820
    1   10    3    2        0.0045387874
    1   10    3    4        0.0003666812
    1   10    3   10       -0.0004740511
    1   10    4    1       -0.0023228575
    1   10    4    3        0.0000852099
    1   10    4    7        0.0004640518
    1   10    5    8        0.0000571927
    1   10    5    9        0.0001496364
    1   10    6    8        0.0001496364
    1   10    6    9       -0.0000571927
    1   10    7    2        0.0002450904
    1   10    7    4        0.0004506309
    1   10    7   10       -0.0001146502
    1   10    8    5        0.0000565707
    1   10    8    6        0.0001480091
    1   10    9    5        0.0001480091
    1   10    9    6       -0.0000565707
    1   10   10    1        0.0023068974
    1   10   10    3       -0.0001895597
    1   10   10    7       -0.0001221948
    2    1    1    2        0.7281296500
    2    1    1    4        0.0343168722
    2    1    1   10       -0.0343894543
    2    1    2    1        0.7281138654
    2    1    2    3       -0.0618008523
    2    1    2    7       -0.0078175251
    2    1    3    2       -0.0618024618
    2    1    3    4       -0.0451016556
    2    1    3   10        0.0392498277
    2    1    4    1        0.0343189879
    2    1    4    3       -0.0451027086
    2    1    4    7        0.0313276966
    2    1    5    8        0.0084823197
    2    1    5    9        0.0221927575
    2    1    6    8        0.0221927575
    2    1    6    9       -0.0084823197
    2    1    7    2       -0.0078208424
    2    1    7    4        0.0313268570
    2    1    7   10       -0.0005741050
    2    1    8    5        0.0084823800
    2    1    8    6        0.0221929152
    2    1    9    5        0.0221929152
    2    1    9    6       -0.0084823800
    2    1   10    1       -0.0343912669
    2    1   10    3        0.0392502925
    2    1   10    7       -0.0005747940
    2    2    1    1        0.9079582692
    2    2    1    3       -0.0603951182
    2    2    1    7       -0.0060067690
    2    2    2    2        0.9080321290
    2    2    2    4        0.0354481234
    2    2    2   10       -0.0353013779
    2    2    3    1       -0.0603951182
    2    2    3    3        0.2632202692
    2    2    3    7        0.0285325931
    2    2    4    2        0.0354481234
    2    2    4    4        0.1627867989
    2    2    4   10       -0.0564251692
    2    2    5    5        0.1507772008
    2    2    6    6        0.1507772008
    2    2    7    1       -0.0060067690
    2    2    7    3        0.0285325931
    2    2    7    7        0.1394657270
    2    2    8    8        0.1172213901
    2    2    9    9        0.1172213901
    2    2   10    2       -0.0353013779
    2    2   10    4       -0.0564251692
    2    2   10   10        0.1373098555
    2    3    1    2       -0.0618024618
    2    3    1    4       -0.0041880834
    2    3    1   10        0.0042305549
    2    3    2    1       -0.0618008523
    2    3    2    3        0.0055385503
    2    3    2    7        0.0011374339
    2    3    3    2        0.0071390433
    2    3    3    4        0.0014715959
    2    3    3   10       -0.0013324484
    2    3    4    1       -0.0046730216
    2    3    4    3        0.0016813828
    2    3    4    7       -0.0006215676
    2    3    5    8       -0.0001163662
    2    3    5    9       -0.0003044552
    2    3    6    8       -0.0003044552
    2    3    6    9        0.0001163662
    2    3    7    2        0.0012746093
    2    3    7    4       -0.0005588626
    2    3    7   10        0.0000634610
    2    3    8    5       -0.0001205150
    2    3    8    6       -0.0003153101
    2    3    9    5       -0.0003153101
    2    3    9    6        0.0001205150
    2    3   10    1        0.0045387874
    2    3   10    3       -0.0015026821
    2    3   10    7        0.0001086250
    2    4    1    1        0.0354495818
    2    4    1    3       -0.0041710625
    2    4    1    7       -0.0002819835
    2    4    2    2        0.0354481234
    2    4    2    4        0.0031022903
    2    4    2   10       -0.0030961177
    2    4    3    1       -0.0046569223
    2    4    3    3        0.0023345643
    2    4    3    7        0.0008618241
    2    4    4    2        0.0023591560
    2    4    4    4       -0.0000499462
    2    4    4   10       -0.0001126777
    2    4    5    5        0.0002416905
    2    4    6    6        0.0002416905
    2    4    7    1       -0.0001664297
    2    4    7    3        0.0007889530
    2    4    7    7        0.0000885297
    2    4    8    8       -0.0000057826
    2    4    9    9       -0.0000057826
    2    4   10    2       -0.0023336018
    2    4   10    4       -0.0001128724
    2    4   10   10        0.0000877298
    2    5    1    8        0.0000937004
    2    5    1    9        0.0002451534
    2    5    2    5        0.0003902053
    2    5    3    8        0.0001467342
    2    5    3    9        0.0003839087
    2    5    4    5       -0.0004585087
    2    5    5    2        0.0003692445
    2    5    5    4       -0.0004572686
    2    5    5   10        0.0003812252
    2    5    7    8       -0.0000450387
    2    5    7    9       -0.0001178372
    2    5    8    1        0.0000822652
    2    5    8    3        0.0001283598
    2    5    8    7       -0.0000460188
    2    5    9    1        0.0002152349
    2    5    9    3        0.0003358349
    2    5    9    7       -0.0001204016
    2    5   10    5        0.0003806205
    2    6    1    8        0.0002451534
    2    6    1    9       -0.0000937004
    2    6    2    6        0.0003902053
    2    6    3    8        0.0003839087
    2    6    3    9       -0.0001467342
    2    6    4    6       -0.0004585087
    2    6    6    2        0.0003692445
    2    6    6    4       -0.0004572686
    2    6    6   10        0.0003812252
    2    6    7    8       -0.0001178372
    2    6    7    9        0.0000450387
    2    6    8    1        0.0002152349
    2    6    8    3        0.0003358349
    2    6    8    7       -0.0001204016
    2    6    9    1       -0.0000822652
    2    6    9    3       -0.0001283598
    2    6    9    7        0.0000460188
    2    6   10    6        0.0003806205
    2    7    1    2       -0.0078208424
    2    7    1    4       -0.0003064072
    2    7    1   10        0.0003719820
    2    7    2    1       -0.0078175251
    2    7    2    3        0.0011374339
    2    7    2    7        0.0006391292
    2    7    3    2        0.0012746093
    2    7    3    4        0.0008322409
    2    7    3   10       -0.0006008244
    2    7    4    1       -0.0001883693
    2    7    4    3        0.0006507509
    2    7    4    7       -0.0008587463
    2    7    5    8       -0.0001257966
    2    7    5    9       -0.0003291285
    2    7    6    8       -0.0003291285
    2    7    6    9        0.0001257966
    2    7    7    2        0.0005410386
    2    7    7    4       -0.0008471220
    2    7    7   10        0.0001831545
    2    7    8    5       -0.0001260801
    2    7    8    6       -0.0003298702
    2    7    9    5       -0.0003298702
    2    7    9    6        0.0001260801
    2    7   10    1        0.0002450904
    2    7   10    3       -0.0004656029
    2    7   10    7        0.0001928550
    2    8    1    5        0.0000971617
    2    8    1    6        0.0002542096
    2    8    2    8        0.0001692796
    2    8    3    5        0.0002081005
    2    8    3    6        0.0005444647
    2    8    4    8       -0.0003034930
    2    8    5    1        0.0000852773
    2    8    5    3        0.0002032005
    2    8    5    7        0.0000067695
    2    8    6    1        0.0002231157
    2    8    6    3        0.0005316445
    2    8    6    7        0.0000177114
    2    8    7    5        0.0000075533
    2    8    7    6        0.0000197621
    2    8    8    2        0.0001495090
    2    8    8    4       -0.0003033067
    2    8    8   10        0.0001575446
    2    8   10    8        0.0001577421
    2    9    1    5        0.0002542096
    2    9    1    6       -0.0000971617
    2    9    2    9        0.0001692796
    2    9    3    5        0.0005444647
    2    9    3    6       -0.0002081005
    2    9    4    9       -0.0003034930
    2    9    5    1        0.0002231157
    2    9    5    3        0.0005316445
    2    9    5    7        0.0000177114
    2    9    6    1       -0.0000852773
    2    9    6    3       -0.0002032005
    2    9    6    7       -0.0000067695
    2    9    7    5        0.0000197621
    2    9    7    6       -0.0000075533
    2    9    9    2        0.0001495090
    2    9    9    4       -0.0003033067
    2    9    9   10        0.0001575446
    2    9   10    9        0.0001577421
    2   10    1    1       -0.0353015973
    2   10    1    3        0.0042160814
    2   10    1    7        0.0003510445
    2   10    2    2       -0.0353013779
    2   10    2    4       -0.0030961177
    2   10    2   10        0.0030951603
    2   10    3    1        0.0045250776
    2   10    3    3       -0.0020525420
    2   10    3    7       -0.0007325827
    2   10    4    2       -0.0023336018
    2   10    4    4        0.0000184625
    2   10    4   10        0.0001272843
    2   10    5    5       -0.0001673105
    2   10    6    6       -0.0001673105
    2   10    7    1        0.0002265168
    2   10    7    3       -0.0006627704
    2   10    7    7       -0.0000721581
    2   10    8    8        0.0000251577
    2   10    9    9        0.0000251577
    2   10   10    2        0.0023161750
    2   10   10    4        0.0001273114
    2   10   10   10       -0.0001041497
    3    1    1    1       -0.0603837891
    3    1    1    3        0.0071545586
    3    1    1    7        0.0013091744
    3    1    2    2       -0.0603951182
    3    1    2    4       -0.0046569223
    3    1    2   10        0.0045250776
    3    1    3    1        0.0055318850
    3    1    3    3       -0.0010825283
    3    1    3    7        0.0002657168
    3    1    4    2       -0.0041710625
    3    1    4    4       -0.0008637507
    3    1    4   10        0.0006667061
    3    1    5    5        0.0001780493
    3    1    6    6        0.0001780493
    3    1    7    1        0.0011700336
    3    1    7    3        0.0004557348
    3    1    7    7       -0.0000987548
    3    1    8    8       -0.0000842415
    3    1    9    9       -0.0000842415
    3    1   10    2        0.0042160814
    3    1   10    4        0.0006641535
    3    1   10   10       -0.0006907875
    3    2    1    2       -0.0618008523
    3    2    1    4       -0.0046730216
    3    2    1   10        0.0045387874
    3    2    2    1       -0.0618024618
    3    2    2    3        0.0071390433
    3    2    2    7        0.0012746093
    3    2    3    2        0.0055385503
    3    2    3    4        0.0016813828
    3    2    3   10       -0.0015026821
    3    2    4    1       -0.0041880834
    3    2    4    3        0.0014715959
    3    2    4    7       -0.0005588626
    3    2    5    8       -0.0001205150
    3    2    5    9       -0.0003153101
    3    2    6    8       -0.0003153101
    3    2    6    9        0.0001205150
    3    2    7    2        0.0011374339
    3    2    7    4       -0.0006215676
    3    2    7   10        0.0001086250
    3    2    8    5       -0.0001163662
    3    2    8    6       -0.0003044552
    3    2    9    5       -0.0003044552
    3    2    9    6        0.0001163662
    3    2   10    1        0.0042305549
    3    2   10    3       -0.0013324484
    3    2   10    7        0.0000634610
    3    3    1    1        0.2632267910
    3    3    1    3       -0.0010825283
    3    3    1    7        0.0016488832
    3    3    2    2        0.2632202692
    3    3    2    4        0.0023345643
    3    3    2   10       -0.0020525420
    3    3    3    1       -0.0010825283
    3    3    3    3        0.2231636818
    3    3    3    7        0.0243751531
    3    3    4    2        0.0023345643
    3    3    4    4        0.1401788582
    3    3    4   10       -0.0394650334
    3    3    5    5        0.1460258833
    3    3    6    6        0.1460258833
    3    3    7    1        0.0016488832
    3    3    7    3        0.0243751531
    3    3    7    7        0.1276326785
    3    3    8    8        0.1132822418
    3    3    9    9        0.1132822418
    3    3   10    2       -0.0020525420
    3    3   10    4       -0.0394650334
    3    3   10   10        0.1196425628
    3    4    1    2       -0.0451027086
    3    4    1    4       -0.0002942195
    3    4    1   10        0.0003666812
    3    4    2    1       -0.0451016556
    3    4    2    3        0.0014715959
    3    4    2    7        0.0008322409
    3    4    3    2        0.0016813828
    3    4    3    4        0.0196960838
    3    4    3   10       -0.0129298094
    3    4    4    1       -0.0000327474
    3    4    4    3        0.0198564253
    3    4    4    7       -0.0225116255
    3    4    5    8       -0.0053560310
    3    4    5    9       -0.0140132771
    3    4    6    8       -0.0140132771
    3    4    6    9        0.0053560310
    3    4    7    2        0.0006507509
    3    4    7    4       -0.0218578206
    3    4    7   10       -0.0034804314
    3    4    8    5       -0.0053926937
    3    4    8    6       -0.0141091997
    3    4    9    5       -0.0141091997
    3    4    9    6        0.0053926937
    3    4   10    1        0.0000852099
    3    4   10    3       -0.0142453834
    3    4   10    7       -0.0028551880
    3    5    1    5        0.0010741976
    3    5    2    8        0.0002081005
    3    5    2    9        0.0005444647
    3    5    3    5        0.0244875410
    3    5    4    8       -0.0039293797
    3    5    4    9       -0.0102806512
    3    5    5    1        0.0010554168
    3    5    5    3        0.0187259273
    3    5    5    7        0.0000144097
    3    5    7    5        0.0017239434
    3    5    8    2        0.0002032005
    3    5    8    4       -0.0039910910
    3    5    8   10        0.0009736959
    3    5    9    2        0.0005316445
    3    5    9    4       -0.0104421098
    3    5    9   10        0.0025475339
    3    5   10    8        0.0009187655
    3    5   10    9        0.0024038165
    3    6    1    6        0.0010741976
    3    6    2    8        0.0005444647
    3    6    2    9       -0.0002081005
    3    6    3    6        0.0244875410
    3    6    4    8       -0.0102806512
    3    6    4    9        0.0039293797
    3    6    6    1        0.0010554168
    3    6    6    3        0.0187259273
    3    6    6    7        0.0000144097
    3    6    7    6        0.0017239434
    3    6    8    2        0.0005316445
    3    6    8    4       -0.0104421098
    3    6    8   10        0.0025475339
    3    6    9    2       -0.0002032005
    3    6    9    4        0.0039910910
    3    6    9   10       -0.0009736959
    3    6   10    8        0.0024038165
    3    6   10    9       -0.0009187655
    3    7    1    1        0.0285411378
    3    7    1    3        0.0004557348
    3    7    1    7        0.0011327728
    3    7    2    2        0.0285325931
    3    7    2    4        0.0008618241
    3    7    2   10       -0.0007325827
    3    7    3    1        0.0002657168
    3    7    3    3        0.0243751531
    3    7    3    7        0.0172587780
    3    7    4    2        0.0007889530
    3    7    4    4       -0.0010453279
    3    7    4   10       -0.0035794316
    3    7    5    5        0.0093852564
    3    7    6    6        0.0093852564
    3    7    7    1        0.0010816132
    3    7    7    3        0.0123392221
    3    7    7    7        0.0003561831
    3    7    8    8        0.0004218335
    3    7    9    9        0.0004218335
    3    7   10    2       -0.0006627704
    3    7   10    4       -0.0039443450
    3    7   10   10        0.0000573890
    3    8    1    8        0.0002642510
    3    8    2    5        0.0001467342
    3    8    2    6        0.0003839087
    3    8    3    8        0.0043101650
    3    8    4    5       -0.0017746660
    3    8    4    6       -0.0046431557
    3    8    5    2        0.0001283598
    3    8    5    4       -0.0017995015
    3    8    5   10        0.0008283723
    3    8    6    2        0.0003358349
    3    8    6    4       -0.0047081343
    3    8    6   10        0.0021673158
    3    8    7    8       -0.0038462832
    3    8    8    1        0.0002128753
    3    8    8    3        0.0034668735
    3    8    8    7       -0.0039901638
    3    8   10    5        0.0008563285
    3    8   10    6        0.0022404592
    3    9    1    9        0.0002642510
    3    9    2    5        0.0003839087
    3    9    2    6       -0.0001467342
    3    9    3    9        0.0043101650
    3    9    4    5       -0.0046431557
    3    9    4    6        0.0017746660
    3    9    5    2        0.0003358349
    3    9    5    4       -0.0047081343
    3    9    5   10        0.0021673158
    3    9    6    2       -0.0001283598
    3    9    6    4        0.0017995015
    3    9    6   10       -0.0008283723
    3    9    7    9       -0.0038462832
    3    9    9    1        0.0002128753
    3    9    9    3        0.0034668735
    3    9    9    7       -0.0039901638
    3    9   10    5        0.0022404592
    3    9   10    6       -0.0008563285
    3   10    1    2        0.0392502925
    3   10    1    4        0.0004697897
    3   10    1   10       -0.0004740511
    3   10    2    1        0.0392498277
    3   10    2    3       -0.0013324484
    3   10    2    7       -0.0006008244
    3   10    3    2       -0.0015026821
[...]
   10    7    8    5        0.0024703138
   10    7    8    6        0.0064632173
   10    7    9    5        0.0064632173
   10    7    9    6       -0.0024703138
   10    7   10    1       -0.0001146502
   10    7   10    3       -0.0002374488
   10    7   10    7        0.0140579279
   10    8    1    5        0.0000943509
   10    8    1    6        0.0002468555
   10    8    2    8        0.0001577421
   10    8    3    5        0.0009187655
   10    8    3    6        0.0024038165
   10    8    4    8        0.0011330810
   10    8    5    1        0.0000936312
   10    8    5    3        0.0009736959
   10    8    5    7        0.0005572870
   10    8    6    1        0.0002449724
   10    8    6    3        0.0025475339
   10    8    6    7        0.0014580604
   10    8    7    5        0.0005572870
   10    8    7    6        0.0014580604
   10    8    8    2        0.0001575446
   10    8    8    4        0.0011330810
   10    8    8   10        0.0042653658
   10    8   10    8        0.0042653658
   10    9    1    5        0.0002468555
   10    9    1    6       -0.0000943509
   10    9    2    9        0.0001577421
   10    9    3    5        0.0024038165
   10    9    3    6       -0.0009187655
   10    9    4    9        0.0011330810
   10    9    5    1        0.0002449724
   10    9    5    3        0.0025475339
   10    9    5    7        0.0014580604
   10    9    6    1       -0.0000936312
   10    9    6    3       -0.0009736959
   10    9    6    7       -0.0005572870
   10    9    7    5        0.0014580604
   10    9    7    6       -0.0005572870
   10    9    9    2        0.0001575446
   10    9    9    4        0.0011330810
   10    9    9   10        0.0042653658
   10    9   10    9        0.0042653658
   10   10    1    1        0.1373093827
   10   10    1    3       -0.0006907875
   10   10    1    7       -0.0003683524
   10   10    2    2        0.1373098555
   10   10    2    4        0.0000877298
   10   10    2   10       -0.0001041497
   10   10    3    1       -0.0006907875
   10   10    3    3        0.1196425628
   10   10    3    7        0.0000573890
   10   10    4    2        0.0000877298
   10   10    4    4        0.1127093690
   10   10    4   10       -0.0109597463
   10   10    5    5        0.0990888885
   10   10    6    6        0.0990888885
   10   10    7    1       -0.0003683524
   10   10    7    3        0.0000573890
   10   10    7    7        0.1085470626
   10   10    8    8        0.0946301246
   10   10    9    9        0.0946301246
   10   10   10    2       -0.0001041497
   10   10   10    4       -0.0109597463
   10   10   10   10        0.1039712529
 fcidump
      0.9078528018     1   1   1   1
      0.7281138654     2   1   2   1
      0.9079582692     2   2   1   1
      0.9080321290     2   2   2   2
     -0.0603837891     3   1   1   1
     -0.0603951182     3   1   2   2
      0.0055318850     3   1   3   1
     -0.0618024618     3   2   2   1
      0.0055385503     3   2   3   2
      0.2632267910     3   3   1   1
      0.2632202692     3   3   2   2
     -0.0010825283     3   3   3   1
      0.2231636818     3   3   3   3
      0.0343189879     4   1   2   1
     -0.0041880834     4   1   3   2
      0.0030882705     4   1   4   1
      0.0354495818     4   2   1   1
      0.0354481234     4   2   2   2
     -0.0041710625     4   2   3   1
      0.0023345643     4   2   3   3
      0.0031022903     4   2   4   2
     -0.0451027086     4   3   2   1
      0.0014715959     4   3   3   2
     -0.0002942195     4   3   4   1
      0.0196960838     4   3   4   3
      0.1627868534     4   4   1   1
      0.1627867989     4   4   2   2
     -0.0008637507     4   4   3   1
      0.1401788582     4   4   3   3
     -0.0000499462     4   4   4   2
      0.1324922329     4   4   4   4
      0.0004096396     5   1   5   1
      0.0003902053     5   2   5   2
      0.0010741976     5   3   5   1
      0.0244875410     5   3   5   3
     -0.0004585087     5   4   5   2
      0.0077444840     5   4   5   4
      0.1507764241     5   5   1   1
      0.1507772008     5   5   2   2
      0.0001780493     5   5   3   1
      0.1460258833     5   5   3   3
      0.0002416905     5   5   4   2
      0.1136727748     5   5   4   4
      0.1286610653     5   5   5   5
      0.0004096396     6   1   6   1
      0.0003902053     6   2   6   2
      0.0010741976     6   3   6   1
      0.0244875410     6   3   6   3
     -0.0004585087     6   4   6   2
      0.0077444840     6   4   6   4
      0.0066649937     6   5   6   5
      0.1507764241     6   6   1   1
      0.1507772008     6   6   2   2
      0.0001780493     6   6   3   1
      0.1460258833     6   6   3   3
      0.0002416905     6   6   4   2
      0.1136727748     6   6   4   4
      0.1153310780     6   6   5   5
      0.1286610653     6   6   6   6
     -0.0060100735     7   1   1   1
     -0.0060067690     7   1   2   2
      0.0011700336     7   1   3   1
      0.0016488832     7   1   3   3
     -0.0002819835     7   1   4   2
     -0.0006146767     7   1   4   4
      0.0003243027     7   1   5   5
      0.0003243027     7   1   6   6
      0.0006850974     7   1   7   1
     -0.0078208424     7   2   2   1
      0.0011374339     7   2   3   2
     -0.0003064072     7   2   4   1
      0.0008322409     7   2   4   3
      0.0006391292     7   2   7   2
      0.0285411378     7   3   1   1
      0.0285325931     7   3   2   2
      0.0004557348     7   3   3   1
      0.0243751531     7   3   3   3
      0.0008618241     7   3   4   2
     -0.0010453279     7   3   4   4
      0.0093852564     7   3   5   5
      0.0093852564     7   3   6   6
      0.0011327728     7   3   7   1
      0.0172587780     7   3   7   3
      0.0313268570     7   4   2   1
     -0.0006215676     7   4   3   2
     -0.0005706836     7   4   4   1
     -0.0225116255     7   4   4   3
     -0.0008587463     7   4   7   2
      0.0423358253     7   4   7   4
      0.0000500469     7   5   5   1
      0.0000144097     7   5   5   3
      0.0035806802     7   5   7   5
      0.0000500469     7   6   6   1
      0.0000144097     7   6   6   3
      0.0035806802     7   6   7   6
      0.1394659825     7   7   1   1
      0.1394657270     7   7   2   2
     -0.0000987548     7   7   3   1
      0.1276326785     7   7   3   3
      0.0000885297     7   7   4   2
      0.1231989750     7   7   4   4
      0.1043093848     7   7   5   5
      0.1043093848     7   7   6   6
     -0.0000169342     7   7   7   1
      0.0003561831     7   7   7   3
      0.1212787039     7   7   7   7
      0.0000937004     8   1   5   2
     -0.0000975227     8   1   5   4
      0.0002451534     8   1   6   2
     -0.0002551539     8   1   6   4
      0.0001642909     8   1   8   1
      0.0000971617     8   2   5   1
      0.0002081005     8   2   5   3
      0.0002542096     8   2   6   1
      0.0005444647     8   2   6   3
      0.0000067695     8   2   7   5
      0.0000177114     8   2   7   6
      0.0001692796     8   2   8   2
      0.0001467342     8   3   5   2
     -0.0017746660     8   3   5   4
      0.0003839087     8   3   6   2
     -0.0046431557     8   3   6   4
      0.0002642510     8   3   8   1
      0.0043101650     8   3   8   3
     -0.0001809974     8   4   5   1
     -0.0039293797     8   4   5   3
     -0.0004735535     8   4   6   1
     -0.0102806512     8   4   6   3
      0.0017295466     8   4   7   5
      0.0045251075     8   4   7   6
     -0.0003034930     8   4   8   2
      0.0148042454     8   4   8   4
      0.0084823800     8   5   2   1
     -0.0001163662     8   5   3   2
     -0.0000682654     8   5   4   1
     -0.0053560310     8   5   4   3
     -0.0001257966     8   5   7   2
      0.0078898257     8   5   7   4
      0.0050350841     8   5   8   5
      0.0221929152     8   6   2   1
     -0.0003044552     8   6   3   2
     -0.0001786066     8   6   4   1
     -0.0140132771     8   6   4   3
     -0.0003291285     8   6   7   2
      0.0206425830     8   6   7   4
      0.0059362316     8   6   8   5
      0.0182974779     8   6   8   6
     -0.0000450387     8   7   5   2
      0.0024008557     8   7   5   4
     -0.0001178372     8   7   6   2
      0.0062814901     8   7   6   4
     -0.0000797057     8   7   8   1
     -0.0038462832     8   7   8   3
      0.0087870709     8   7   8   7
      0.1172212538     8   8   1   1
      0.1172213901     8   8   2   2
     -0.0000842415     8   8   3   1
      0.1132822418     8   8   3   3
     -0.0000057826     8   8   4   2
      0.1066601976     8   8   4   4
      0.0998562595     8   8   5   5
      0.0030377343     8   8   6   5
      0.1066429941     8   8   6   6
     -0.0000560453     8   8   7   1
      0.0004218335     8   8   7   3
      0.1013665292     8   8   7   7
      0.1042653372     8   8   8   8
      0.0002451534     9   1   5   2
     -0.0002551539     9   1   5   4
     -0.0000937004     9   1   6   2
      0.0000975227     9   1   6   4
      0.0001642909     9   1   9   1
      0.0002542096     9   2   5   1
      0.0005444647     9   2   5   3
     -0.0000971617     9   2   6   1
     -0.0002081005     9   2   6   3
      0.0000177114     9   2   7   5
     -0.0000067695     9   2   7   6
      0.0001692796     9   2   9   2
      0.0003839087     9   3   5   2
     -0.0046431557     9   3   5   4
     -0.0001467342     9   3   6   2
      0.0017746660     9   3   6   4
      0.0002642510     9   3   9   1
      0.0043101650     9   3   9   3
     -0.0004735535     9   4   5   1
     -0.0102806512     9   4   5   3
      0.0001809974     9   4   6   1
      0.0039293797     9   4   6   3
      0.0045251075     9   4   7   5
     -0.0017295466     9   4   7   6
     -0.0003034930     9   4   9   2
      0.0148042454     9   4   9   4
      0.0221929152     9   5   2   1
     -0.0003044552     9   5   3   2
     -0.0001786066     9   5   4   1
     -0.0140132771     9   5   4   3
     -0.0003291285     9   5   7   2
      0.0206425830     9   5   7   4
      0.0059362316     9   5   8   5
      0.0127650977     9   5   8   6
      0.0182974779     9   5   9   5
     -0.0084823800     9   6   2   1
      0.0001163662     9   6   3   2
      0.0000682654     9   6   4   1
      0.0053560310     9   6   4   3
      0.0001257966     9   6   7   2
     -0.0078898257     9   6   7   4
      0.0004972961     9   6   8   5
     -0.0059362316     9   6   8   6
     -0.0059362316     9   6   9   5
      0.0050350841     9   6   9   6
     -0.0001178372     9   7   5   2
      0.0062814901     9   7   5   4
      0.0000450387     9   7   6   2
     -0.0024008557     9   7   6   4
     -0.0000797057     9   7   9   1
     -0.0038462832     9   7   9   3
      0.0087870709     9   7   9   7
      0.0030377343     9   8   5   5
      0.0033933673     9   8   6   5
     -0.0030377343     9   8   6   6
      0.0053340684     9   8   9   8
      0.1172212538     9   9   1   1
      0.1172213901     9   9   2   2
     -0.0000842415     9   9   3   1
      0.1132822418     9   9   3   3
     -0.0000057826     9   9   4   2
      0.1066601976     9   9   4   4
      0.1066429941     9   9   5   5
     -0.0030377343     9   9   6   5
      0.0998562595     9   9   6   6
     -0.0000560453     9   9   7   1
      0.0004218335     9   9   7   3
      0.1013665292     9   9   7   7
      0.0935972003     9   9   8   8
      0.1042653372     9   9   9   9
     -0.0343912669    10   1   2   1
      0.0042305549    10   1   3   2
     -0.0030838121    10   1   4   1
      0.0003666812    10   1   4   3
      0.0003719820    10   1   7   2
      0.0004640518    10   1   7   4
      0.0000571927    10   1   8   5
      0.0001496364    10   1   8   6
      0.0001496364    10   1   9   5
     -0.0000571927    10   1   9   6
      0.0030847305    10   1  10   1
     -0.0353015973    10   2   1   1
     -0.0353013779    10   2   2   2
      0.0042160814    10   2   3   1
     -0.0020525420    10   2   3   3
     -0.0030961177    10   2   4   2
      0.0000184625    10   2   4   4
     -0.0001673105    10   2   5   5
     -0.0001673105    10   2   6   6
      0.0003510445    10   2   7   1
     -0.0007325827    10   2   7   3
     -0.0000721581    10   2   7   7
      0.0000251577    10   2   8   8
      0.0000251577    10   2   9   9
      0.0030951603    10   2  10   2
      0.0392502925    10   3   2   1
     -0.0013324484    10   3   3   2
      0.0004697897    10   3   4   1
     -0.0129298094    10   3   4   3
     -0.0006008244    10   3   7   2
      0.0122430795    10   3   7   4
      0.0033107114    10   3   8   5
      0.0086619955    10   3   8   6
      0.0086619955    10   3   9   5
     -0.0033107114    10   3   9   6
     -0.0004740511    10   3  10   1
      0.0117092625    10   3  10   3
     -0.0564248530    10   4   1   1
     -0.0564251692    10   4   2   2
      0.0006641535    10   4   3   1
     -0.0394650334    10   4   3   3
     -0.0001126777    10   4   4   2
     -0.0212365897    10   4   4   4
     -0.0215424151    10   4   5   5
     -0.0215424151    10   4   6   6
      0.0003226153    10   4   7   1
     -0.0035794316    10   4   7   3
     -0.0110319612    10   4   7   7
     -0.0113316990    10   4   8   8
     -0.0113316990    10   4   9   9
      0.0001272843    10   4  10   2
      0.0184446700    10   4  10   4
      0.0003812252    10   5   5   2
     -0.0028643209    10   5   5   4
      0.0000811785    10   5   8   1
      0.0008283723    10   5   8   3
     -0.0000648761    10   5   8   7
      0.0002123919    10   5   9   1
      0.0021673158    10   5   9   3
     -0.0001697388    10   5   9   7
      0.0031248703    10   5  10   5
      0.0003812252    10   6   6   2
     -0.0028643209    10   6   6   4
      0.0002123919    10   6   8   1
      0.0021673158    10   6   8   3
     -0.0001697388    10   6   8   7
     -0.0000811785    10   6   9   1
     -0.0008283723    10   6   9   3
      0.0000648761    10   6   9   7
      0.0031248703    10   6  10   6
     -0.0005747940    10   7   2   1
      0.0000634610    10   7   3   2
      0.0001363405    10   7   4   1
     -0.0034804314    10   7   4   3
      0.0001831545    10   7   7   2
      0.0138103181    10   7   7   4
      0.0024703138    10   7   8   5
      0.0064632173    10   7   8   6
      0.0064632173    10   7   9   5
     -0.0024703138    10   7   9   6
     -0.0001146502    10   7  10   1
     -0.0002374488    10   7  10   3
      0.0140579279    10   7  10   7
      0.0000936312    10   8   5   1
      0.0009736959    10   8   5   3
      0.0002449724    10   8   6   1
      0.0025475339    10   8   6   3
      0.0005572870    10   8   7   5
      0.0014580604    10   8   7   6
      0.0001575446    10   8   8   2
      0.0011330810    10   8   8   4
      0.0042653658    10   8  10   8
      0.0002449724    10   9   5   1
      0.0025475339    10   9   5   3
     -0.0000936312    10   9   6   1
     -0.0009736959    10   9   6   3
      0.0014580604    10   9   7   5
     -0.0005572870    10   9   7   6
      0.0001575446    10   9   9   2
      0.0011330810    10   9   9   4
      0.0042653658    10   9  10   9
      0.1373093827    10  10   1   1
      0.1373098555    10  10   2   2
     -0.0006907875    10  10   3   1
      0.1196425628    10  10   3   3
      0.0000877298    10  10   4   2
      0.1127093690    10  10   4   4
      0.0990888885    10  10   5   5
      0.0990888885    10  10   6   6
     -0.0003683524    10  10   7   1
      0.0000573890    10  10   7   3
      0.1085470626    10  10   7   7
      0.0946301246    10  10   8   8
      0.0946301246    10  10   9   9
     -0.0001041497    10  10  10   2
     -0.0109597463    10  10  10   4
      0.1039712529    10  10  10  10
     -4.9809758363     1   1   0   0
     -4.9810664313     2   2   0   0
      0.1207767945     3   1   0   0
     -1.4431566529     3   3   0   0
     -0.0727737934     4   2   0   0
     -0.9025213757     4   4   0   0
     -0.8471412906     5   5   0   0
     -0.8471412906     6   6   0   0
      0.0070134594     7   1   0   0
     -0.1412091491     7   3   0   0
     -0.7615863676     7   7   0   0
     -0.6365704690     8   8   0   0
     -0.6365704690     9   9   0   0
      0.0718542092    10   2   0   0
      0.2849485153    10   4   0   0
     -0.7069391017    10  10   0   0

 Parallel integral file used       9 records with       0 large values


 Task  times  cpu:      744.6s     wall:      748.8s


                                NWChem Input Module
                                -------------------


 Summary of allocated global arrays
-----------------------------------
  No active global arrays



                         GA Statistics for process    0
                         ------------------------------

       create   destroy   get      put      acc     scatter   gather  read&inc
calls: 2041     2041     3.19e+06 1.80e+04 1.28e+05    0        0     1.71e+05 
number of processes/call 1.00e+00 1.00e+00 1.00e+00 0.00e+00 0.00e+00
bytes total:             1.24e+10 9.88e+07 2.18e+08 0.00e+00 0.00e+00 1.37e+06
bytes remote:            0.00e+00 0.00e+00 0.00e+00 0.00e+00 0.00e+00 0.00e+00
Max memory consumed for GA by this process: 73662736 bytes

MA_summarize_allocated_blocks: starting scan ...
MA_summarize_allocated_blocks: scan completed: 0 heap blocks, 0 stack blocks
MA usage statistics:

	allocation statistics:
					      heap	     stack
					      ----	     -----
	current number of blocks	         0	         0
	maximum number of blocks	        17	        40
	current total bytes		         0	         0
	maximum total bytes		  28329768	8298725272
	maximum total K-bytes		     28330	   8298726
	maximum total M-bytes		        29	      8299


                                     CITATION
                                     --------
                Please cite the following reference when publishing
                           results obtained with NWChem:

                 M. Valiev, E.J. Bylaska, N. Govind, K. Kowalski,
              T.P. Straatsma, H.J.J. van Dam, D. Wang, J. Nieplocha,
                        E. Apra, T.L. Windus, W.A. de Jong
                 "NWChem: a comprehensive and scalable open-source
                  solution for large scale molecular simulations"
                      Comput. Phys. Commun. 181, 1477 (2010)
                           doi:10.1016/j.cpc.2010.04.018

                                      AUTHORS
                                      -------
          E. Apra, E. J. Bylaska, W. A. de Jong, N. Govind, K. Kowalski,
       T. P. Straatsma, M. Valiev, H. J. J. van Dam, D. Wang, T. L. Windus,
        J. Hammond, J. Autschbach, K. Bhaskaran-Nair, J. Brabec, K. Lopata,
    S. A. Fischer, S. Krishnamoorthy, M. Jacquelin, W. Ma, M. Klemm, O. Villa,
      Y. Chen, V. Anisimov, F. Aquino, S. Hirata, M. T. Hackler, V. Konjkov,
            D. Mejia-Rodriguez, T. Risthaus, M. Malagoli, A. Marenich,
   A. Otero-de-la-Roza, J. Mullin, P. Nichols, R. Peverati, J. Pittner, Y. Zhao,
        P.-D. Fan, A. Fonari, M. J. Williamson, R. J. Harrison, J. R. Rehr,
      M. Dupuis, D. Silverstein, D. M. A. Smith, J. Nieplocha, V. Tipparaju,
    M. Krishnan, B. E. Van Kuiken, A. Vazquez-Mayagoitia, L. Jensen, M. Swart,
      Q. Wu, T. Van Voorhis, A. A. Auer, M. Nooijen, L. D. Crosby, E. Brown,
      G. Cisneros, G. I. Fann, H. Fruchtl, J. Garza, K. Hirao, R. A. Kendall,
      J. A. Nichols, K. Tsemekhman, K. Wolinski, J. Anchell, D. E. Bernholdt,
      P. Borowski, T. Clark, D. Clerc, H. Dachsel, M. J. O. Deegan, K. Dyall,
    D. Elwood, E. Glendening, M. Gutowski, A. C. Hess, J. Jaffe, B. G. Johnson,
     J. Ju, R. Kobayashi, R. Kutteh, Z. Lin, R. Littlefield, X. Long, B. Meng,
      T. Nakajima, S. Niu, L. Pollack, M. Rosing, K. Glaesemann, G. Sandrone,
      M. Stave, H. Taylor, G. Thomas, J. H. van Lenthe, A. T. Wong, Z. Zhang.

 Total times  cpu:      744.6s     wall:      748.9s
