 argument  1 = Li2-10_ORBITALS-ccpVTZ-3_07395.nw
  NWChem w/ OpenMP: maximum threads =    1



============================== echo of input deck ==============================
title "Li2-REMOVE"
echo
start Li2-REMOVE

memory total 24 gb

geometry  units angstrom
symmetry c1
Li  0    0    0
Li  0    0    3.07395
end

basis spherical
   * library cc-pvtz
end

scf
thresh 1.0e-10
tol2e 1.0e-10
rhf
singlet
maxiter 200
end

tce
   ccsd
   maxiter 200
   thresh 1.e-6
   2eorb
   2emet 13
   tilesize 5
end

set tce:qducc T
set tce:nactv 7

task tce energy

================================================================================


                                         
                                         


              Northwest Computational Chemistry Package (NWChem) 6.8
              ------------------------------------------------------


                    Environmental Molecular Sciences Laboratory
                       Pacific Northwest National Laboratory
                                Richland, WA 99352

                              Copyright (c) 1994-2018
                       Pacific Northwest National Laboratory
                            Battelle Memorial Institute

             NWChem is an open-source computational chemistry package
                        distributed under the terms of the
                      Educational Community License (ECL) 2.0
             A copy of the license is included with this distribution
                              in the LICENSE.TXT file

                                  ACKNOWLEDGMENT
                                  --------------

            This software and its documentation were developed at the
            EMSL at Pacific Northwest National Laboratory, a multiprogram
            national laboratory, operated for the U.S. Department of Energy
            by Battelle under Contract Number DE-AC05-76RL01830. Support
            for this work was provided by the Department of Energy Office
            of Biological and Environmental Research, Office of Basic
            Energy Sciences, and the Office of Advanced Scientific Computing.


           Job information
           ---------------

    hostname        = WE35263ubuntu
    program         = /home/baum612/code/NWChem/nwchem/bin/LINUX64/nwchem
    date            = Mon Apr  8 23:08:18 2019

    compiled        = Thu_Apr_04_14:53:19_2019
    source          = /home/baum612/code/NWChem/nwchem
    nwchem branch   = Development
    nwchem revision = nwchem_on_git-845-ga8f432451
    ga revision     = 5.6.5
    use scalapack   = F
    input           = Li2-10_ORBITALS-ccpVTZ-3_07395.nw
    prefix          = Li2-REMOVE.
    data base       = ./Li2-REMOVE.db
    status          = startup
    nproc           =        1
    time left       =     -1s



           Memory information
           ------------------

    heap     =  805306362 doubles =   6144.0 Mbytes
    stack    =  805306367 doubles =   6144.0 Mbytes
    global   = 1610612736 doubles =  12288.0 Mbytes (distinct from heap & stack)
    total    = 3221225465 doubles =  24576.0 Mbytes
    verify   = yes
    hardfail = no 


           Directory information
           ---------------------

  0 permanent = .
  0 scratch   = .




                                NWChem Input Module
                                -------------------


                                    Li2-REMOVE
                                    ----------

 Scaling coordinates for geometry "geometry" by  1.889725989
 (inverse scale =  0.529177249)

 Turning off AUTOSYM since
 SYMMETRY directive was detected!


          ------
          auto-z
          ------
     1 autoz failed with cvr_scaling = 1.2 changing to 1.3
  no constraints, skipping    0.0000000000000000     
  no constraints, skipping    0.0000000000000000     


                             Geometry "geometry" -> ""
                             -------------------------

 Output coordinates in angstroms (scale by  1.889725989 to convert to a.u.)

  No.       Tag          Charge          X              Y              Z
 ---- ---------------- ---------- -------------- -------------- --------------
    1 Li                   3.0000     0.00000000     0.00000000    -1.53697500
    2 Li                   3.0000     0.00000000     0.00000000     1.53697500

      Atomic Mass 
      ----------- 

      Li                 7.016000


 Effective nuclear repulsion energy (a.u.)       1.5493405036

            Nuclear Dipole moment (a.u.) 
            ----------------------------
        X                 Y               Z
 ---------------- ---------------- ----------------
     0.0000000000     0.0000000000     0.0000000000



                                Z-matrix (autoz)
                                -------- 

 Units are Angstrom for bonds and degrees for angles

      Type          Name      I     J     K     L     M      Value
      ----------- --------  ----- ----- ----- ----- ----- ----------
    1 Stretch                  1     2                       3.07395


            XYZ format geometry
            -------------------
     2
 geometry
 Li                    0.00000000     0.00000000    -1.53697500
 Li                    0.00000000     0.00000000     1.53697500



 Summary of "ao basis" -> "" (spherical)
 ------------------------------------------------------------------------------
       Tag                 Description            Shells   Functions and Types
 ---------------- ------------------------------  ------  ---------------------
 *                          cc-pvtz                   on all atoms 


                      Basis "ao basis" -> "ao basis" (spherical)
                      -----
  Li (Lithium)
  ------------
            Exponent  Coefficients 
       -------------- ---------------------------------------------------------
  1 S  5.98800000E+03  0.000133
  1 S  8.98900000E+02  0.001025
  1 S  2.05900000E+02  0.005272
  1 S  5.92400000E+01  0.020929
  1 S  1.98700000E+01  0.066340
  1 S  7.40600000E+00  0.165775
  1 S  2.93000000E+00  0.315038
  1 S  1.18900000E+00  0.393523
  1 S  4.79800000E-01  0.190870

  2 S  5.98800000E+03 -0.000021
  2 S  8.98900000E+02 -0.000161
  2 S  2.05900000E+02 -0.000820
  2 S  5.92400000E+01 -0.003326
  2 S  1.98700000E+01 -0.010519
  2 S  7.40600000E+00 -0.028097
  2 S  2.93000000E+00 -0.055936
  2 S  1.18900000E+00 -0.099237
  2 S  4.79800000E-01 -0.112189

  3 S  7.50900000E-02  1.000000

  4 S  2.83200000E-02  1.000000

  5 P  3.26600000E+00  0.008630
  5 P  6.51100000E-01  0.047538
  5 P  1.69600000E-01  0.209772

  6 P  5.57800000E-02  1.000000

  7 P  2.05000000E-02  1.000000

  8 D  1.87400000E-01  1.000000

  9 D  8.01000000E-02  1.000000

 10 F  1.82900000E-01  1.000000



 Summary of "ao basis" -> "ao basis" (spherical)
 ------------------------------------------------------------------------------
       Tag                 Description            Shells   Functions and Types
 ---------------- ------------------------------  ------  ---------------------
 Li                         cc-pvtz                 10       30   4s3p2d1f


                                 NWChem SCF Module
                                 -----------------


                                    Li2-REMOVE



  ao basis        = "ao basis"
  functions       =    60
  atoms           =     2
  closed shells   =     3
  open shells     =     0
  charge          =   0.00
  wavefunction    = RHF 
  input vectors   = atomic
  output vectors  = ./Li2-REMOVE.movecs
  use symmetry    = F
  symmetry adapt  = F


 Summary of "ao basis" -> "ao basis" (spherical)
 ------------------------------------------------------------------------------
       Tag                 Description            Shells   Functions and Types
 ---------------- ------------------------------  ------  ---------------------
 Li                         cc-pvtz                 10       30   4s3p2d1f



 Forming initial guess at       0.1s


      Superposition of Atomic Density Guess
      -------------------------------------

 Sum of atomic energies:         -14.86535760

      Non-variational initial energy
      ------------------------------

 Total energy =     -14.788668
 1-e energy   =     -22.506378
 2-e energy   =       6.168370
 HOMO         =      -0.150363
 LUMO         =      -0.028191


 Starting SCF solution at       0.1s



 ----------------------------------------------
         Quadratically convergent ROHF

 Convergence threshold     :          1.000E-10
 Maximum no. of iterations :          200
 Final Fock-matrix accuracy:          1.000E-10
 ----------------------------------------------


 Integral file          = ./Li2-REMOVE.aoints.0
 Record size in doubles =    65536    No. of integs per rec  =    43688
 Max. records in memory =       54    Max. records in file   =  1545290
 No. of bits per label  =        8    No. of bits per value  =       64


 #quartets = 2.216D+04 #integrals = 3.711D+05 #direct =  0.0% #cached =100.0%


              iter       energy          gnorm     gmax       time
             ----- ------------------- --------- --------- --------
                 1      -14.8684820416  6.05D-02  2.52D-02      0.4
                 2      -14.8697896722  2.10D-03  1.28D-03      0.4
                 3      -14.8697923470  3.22D-06  2.11D-06      0.4
                 4      -14.8697923470  9.90D-12  5.97D-12      0.4


       Final RHF  results 
       ------------------ 

         Total SCF energy =    -14.869792347041
      One-electron energy =    -22.642625642877
      Two-electron energy =      6.223492792250
 Nuclear repulsion energy =      1.549340503586

        Time for solution =      0.3s


             Final eigenvalues
             -----------------

              1      
    1   -2.4620
    2   -2.4619
    3   -0.1739
    4    0.0018
    5    0.0278
    6    0.0278
    7    0.0366
    8    0.0541
    9    0.0541
   10    0.0639
   11    0.1111
   12    0.1198
   13    0.1198

                       ROHF Final Molecular Orbital Analysis
                       -------------------------------------

 Vector    2  Occ=2.000000D+00  E=-2.461902D+00
              MO Center= -4.4D-17,  2.2D-17, -8.8D-11, r^2= 2.5D+00
   Bfn.  Coefficient  Atom+Function         Bfn.  Coefficient  Atom+Function  
  ----- ------------  ---------------      ----- ------------  ---------------
     1      0.705597  1 Li s                 31     -0.705597  2 Li s          

 Vector    3  Occ=2.000000D+00  E=-1.739447D-01
              MO Center= -9.0D-16,  5.3D-16, -3.0D-15, r^2= 5.8D+00
   Bfn.  Coefficient  Atom+Function         Bfn.  Coefficient  Atom+Function  
  ----- ------------  ---------------      ----- ------------  ---------------
     4      0.317256  1 Li s                 34      0.317256  2 Li s          
     3      0.274211  1 Li s                 33      0.274211  2 Li s          
     2      0.172688  1 Li s                 32      0.172688  2 Li s          

 Vector    4  Occ=0.000000D+00  E= 1.830154D-03
              MO Center=  7.1D-16, -5.8D-16,  2.7D-13, r^2= 1.9D+01
   Bfn.  Coefficient  Atom+Function         Bfn.  Coefficient  Atom+Function  
  ----- ------------  ---------------      ----- ------------  ---------------
    13      0.649790  1 Li pz                43      0.649790  2 Li pz         
     4      0.336903  1 Li s                 34     -0.336903  2 Li s          
     3     -0.190312  1 Li s                 33      0.190312  2 Li s          

 Vector    5  Occ=0.000000D+00  E= 2.779393D-02
              MO Center= -2.7D-16,  2.1D-15,  3.2D-14, r^2= 1.8D+01
   Bfn.  Coefficient  Atom+Function         Bfn.  Coefficient  Atom+Function  
  ----- ------------  ---------------      ----- ------------  ---------------
    12      0.520245  1 Li py                42      0.520245  2 Li py         

 Vector    6  Occ=0.000000D+00  E= 2.779393D-02
              MO Center=  3.0D-15, -4.9D-16,  2.2D-14, r^2= 1.8D+01
   Bfn.  Coefficient  Atom+Function         Bfn.  Coefficient  Atom+Function  
  ----- ------------  ---------------      ----- ------------  ---------------
    11      0.520245  1 Li px                41      0.520245  2 Li px         

 Vector    7  Occ=0.000000D+00  E= 3.656712D-02
              MO Center= -2.1D-16,  5.0D-15,  1.1D-12, r^2= 2.5D+01
   Bfn.  Coefficient  Atom+Function         Bfn.  Coefficient  Atom+Function  
  ----- ------------  ---------------      ----- ------------  ---------------
    13      0.885794  1 Li pz                43     -0.885794  2 Li pz         
     4     -0.587162  1 Li s                 34     -0.587162  2 Li s          
     3      0.183938  1 Li s                 33      0.183938  2 Li s          

 Vector    8  Occ=0.000000D+00  E= 5.407849D-02
              MO Center=  7.3D-17,  1.3D-14, -5.6D-14, r^2= 2.7D+01
   Bfn.  Coefficient  Atom+Function         Bfn.  Coefficient  Atom+Function  
  ----- ------------  ---------------      ----- ------------  ---------------
    12      1.428566  1 Li py                42     -1.428566  2 Li py         
     9     -0.176699  1 Li py                39      0.176699  2 Li py         

 Vector    9  Occ=0.000000D+00  E= 5.407849D-02
              MO Center= -7.2D-15, -1.5D-16, -3.5D-14, r^2= 2.7D+01
   Bfn.  Coefficient  Atom+Function         Bfn.  Coefficient  Atom+Function  
  ----- ------------  ---------------      ----- ------------  ---------------
    11      1.428566  1 Li px                41     -1.428566  2 Li px         
     8     -0.176699  1 Li px                38      0.176699  2 Li px         

 Vector   10  Occ=0.000000D+00  E= 6.387114D-02
              MO Center=  7.6D-15, -1.2D-14, -7.6D-14, r^2= 3.3D+01
   Bfn.  Coefficient  Atom+Function         Bfn.  Coefficient  Atom+Function  
  ----- ------------  ---------------      ----- ------------  ---------------
     4      4.614711  1 Li s                 34     -4.614711  2 Li s          
    13      2.103825  1 Li pz                43      2.103825  2 Li pz         
    10      0.442210  1 Li pz                40      0.442210  2 Li pz         
    21      0.278335  1 Li d  0              51     -0.278335  2 Li d  0       

 Vector   11  Occ=0.000000D+00  E= 1.111157D-01
              MO Center= -2.6D-16, -2.6D-15, -5.6D-13, r^2= 1.9D+01
   Bfn.  Coefficient  Atom+Function         Bfn.  Coefficient  Atom+Function  
  ----- ------------  ---------------      ----- ------------  ---------------
    13      1.099070  1 Li pz                43     -1.099070  2 Li pz         
    10     -0.724334  1 Li pz                40      0.724334  2 Li pz         
     3     -0.460345  1 Li s                 33     -0.460345  2 Li s          
     4      0.208011  1 Li s                 34      0.208011  2 Li s          
    21      0.164699  1 Li d  0              51      0.164699  2 Li d  0       

 Vector   12  Occ=0.000000D+00  E= 1.197552D-01
              MO Center=  6.2D-17, -2.9D-16,  1.8D-13, r^2= 1.6D+01
   Bfn.  Coefficient  Atom+Function         Bfn.  Coefficient  Atom+Function  
  ----- ------------  ---------------      ----- ------------  ---------------
     9      0.824693  1 Li py                39      0.824693  2 Li py         
    12     -0.622689  1 Li py                42     -0.622689  2 Li py         
     8     -0.340139  1 Li px                38     -0.340139  2 Li px         
    11      0.256824  1 Li px                41      0.256824  2 Li px         

 Vector   13  Occ=0.000000D+00  E= 1.197552D-01
              MO Center= -2.4D-15,  1.8D-16,  1.7D-13, r^2= 1.6D+01
   Bfn.  Coefficient  Atom+Function         Bfn.  Coefficient  Atom+Function  
  ----- ------------  ---------------      ----- ------------  ---------------
     8      0.824693  1 Li px                38      0.824693  2 Li px         
    11     -0.622689  1 Li px                41     -0.622689  2 Li px         
     9      0.340139  1 Li py                39      0.340139  2 Li py         
    12     -0.256824  1 Li py                42     -0.256824  2 Li py         

 Vector   14  Occ=0.000000D+00  E= 1.508491D-01
              MO Center= -9.3D-17, -4.4D-15, -2.2D-12, r^2= 1.3D+01
   Bfn.  Coefficient  Atom+Function         Bfn.  Coefficient  Atom+Function  
  ----- ------------  ---------------      ----- ------------  ---------------
     3      1.368163  1 Li s                 33      1.368163  2 Li s          
     4     -1.051208  1 Li s                 34     -1.051208  2 Li s          
    10     -0.393944  1 Li pz                40      0.393944  2 Li pz         
     2      0.323186  1 Li s                 32      0.323186  2 Li s          
    13      0.191698  1 Li pz                43     -0.191698  2 Li pz         

 Vector   15  Occ=0.000000D+00  E= 1.562158D-01
              MO Center= -1.4D-15,  2.4D-15, -1.5D-13, r^2= 1.5D+01
   Bfn.  Coefficient  Atom+Function         Bfn.  Coefficient  Atom+Function  
  ----- ------------  ---------------      ----- ------------  ---------------
    12     -1.145905  1 Li py                42      1.145905  2 Li py         
     9      1.061785  1 Li py                39     -1.061785  2 Li py         
    20     -0.158112  1 Li d -1              50     -0.158112  2 Li d -1       

 Vector   16  Occ=0.000000D+00  E= 1.562158D-01
              MO Center= -2.4D-15, -2.3D-16, -1.3D-13, r^2= 1.5D+01
   Bfn.  Coefficient  Atom+Function         Bfn.  Coefficient  Atom+Function  
  ----- ------------  ---------------      ----- ------------  ---------------
    11     -1.145905  1 Li px                41      1.145905  2 Li px         
     8      1.061785  1 Li px                38     -1.061785  2 Li px         
    22      0.158112  1 Li d  1              52      0.158112  2 Li d  1       

 Vector   17  Occ=0.000000D+00  E= 1.588029D-01
              MO Center=  2.4D-15, -2.5D-15,  1.8D-12, r^2= 1.8D+01
   Bfn.  Coefficient  Atom+Function         Bfn.  Coefficient  Atom+Function  
  ----- ------------  ---------------      ----- ------------  ---------------
     4      7.494866  1 Li s                 34     -7.494866  2 Li s          
    10      3.577821  1 Li pz                40      3.577821  2 Li pz         
    13      1.433411  1 Li pz                43      1.433411  2 Li pz         
    21      0.850704  1 Li d  0              51     -0.850704  2 Li d  0       
     3     -0.351000  1 Li s                 33      0.351000  2 Li s          

 Vector   18  Occ=0.000000D+00  E= 2.178236D-01
              MO Center= -1.5D-15, -1.5D-15,  3.4D-14, r^2= 8.8D+00
   Bfn.  Coefficient  Atom+Function         Bfn.  Coefficient  Atom+Function  
  ----- ------------  ---------------      ----- ------------  ---------------
    19      0.513837  1 Li d -2              23     -0.516013  1 Li d  2       
    49      0.513837  2 Li d -2              53     -0.516013  2 Li d  2       

 Vector   19  Occ=0.000000D+00  E= 2.178236D-01
              MO Center=  7.9D-16, -2.6D-15,  2.9D-14, r^2= 8.8D+00
   Bfn.  Coefficient  Atom+Function         Bfn.  Coefficient  Atom+Function  
  ----- ------------  ---------------      ----- ------------  ---------------
    19      0.516013  1 Li d -2              23      0.513837  1 Li d  2       
    49      0.516013  2 Li d -2              53      0.513837  2 Li d  2       

 Vector   20  Occ=0.000000D+00  E= 2.289094D-01
              MO Center= -2.0D-16,  2.0D-16, -5.9D-14, r^2= 1.4D+01
   Bfn.  Coefficient  Atom+Function         Bfn.  Coefficient  Atom+Function  
  ----- ------------  ---------------      ----- ------------  ---------------
     4      4.813329  1 Li s                 34     -4.813329  2 Li s          
    13      1.452911  1 Li pz                43      1.452911  2 Li pz         
    21      0.969965  1 Li d  0              51     -0.969965  2 Li d  0       
     3     -0.935524  1 Li s                 33      0.935524  2 Li s          
    10      0.864854  1 Li pz                40      0.864854  2 Li pz         

 Vector   21  Occ=0.000000D+00  E= 2.434282D-01
              MO Center=  3.2D-15,  2.3D-15,  1.0D-14, r^2= 1.0D+01
   Bfn.  Coefficient  Atom+Function         Bfn.  Coefficient  Atom+Function  
  ----- ------------  ---------------      ----- ------------  ---------------
    22      0.619713  1 Li d  1              52     -0.619713  2 Li d  1       
    20     -0.393877  1 Li d -1              50      0.393877  2 Li d -1       
     8      0.263049  1 Li px                38      0.263049  2 Li px         
     9      0.167189  1 Li py                39      0.167189  2 Li py         

 Vector   22  Occ=0.000000D+00  E= 2.434282D-01
              MO Center=  9.4D-16, -1.0D-15,  8.4D-15, r^2= 1.0D+01
   Bfn.  Coefficient  Atom+Function         Bfn.  Coefficient  Atom+Function  
  ----- ------------  ---------------      ----- ------------  ---------------
    20      0.619713  1 Li d -1              50     -0.619713  2 Li d -1       
    22      0.393877  1 Li d  1              52     -0.393877  2 Li d  1       
     9     -0.263049  1 Li py                39     -0.263049  2 Li py         
     8      0.167189  1 Li px                38      0.167189  2 Li px         

 Vector   23  Occ=0.000000D+00  E= 2.701613D-01
              MO Center= -1.4D-15,  1.3D-15, -4.4D-14, r^2= 1.0D+01
   Bfn.  Coefficient  Atom+Function         Bfn.  Coefficient  Atom+Function  
  ----- ------------  ---------------      ----- ------------  ---------------
    19      0.914115  1 Li d -2              49     -0.914115  2 Li d -2       
    23     -0.286486  1 Li d  2              53      0.286486  2 Li d  2       
    14     -0.172594  1 Li d -2              44      0.172594  2 Li d -2       

 Vector   24  Occ=0.000000D+00  E= 2.701613D-01
              MO Center= -8.2D-17, -1.9D-15, -1.4D-14, r^2= 1.0D+01
   Bfn.  Coefficient  Atom+Function         Bfn.  Coefficient  Atom+Function  
  ----- ------------  ---------------      ----- ------------  ---------------
    23      0.914115  1 Li d  2              53     -0.914115  2 Li d  2       
    19      0.286486  1 Li d -2              49     -0.286486  2 Li d -2       
    18     -0.172594  1 Li d  2              48      0.172594  2 Li d  2       

 Vector   25  Occ=0.000000D+00  E= 3.073120D-01
              MO Center= -1.2D-15, -1.5D-15, -1.6D-13, r^2= 1.3D+01
   Bfn.  Coefficient  Atom+Function         Bfn.  Coefficient  Atom+Function  
  ----- ------------  ---------------      ----- ------------  ---------------
    21     -1.085651  1 Li d  0              51     -1.085651  2 Li d  0       
     3      0.989071  1 Li s                 33      0.989071  2 Li s          
    13     -0.627696  1 Li pz                43      0.627696  2 Li pz         
     4     -0.446256  1 Li s                 34     -0.446256  2 Li s          
    10      0.271846  1 Li pz                40     -0.271846  2 Li pz         

 Vector   26  Occ=0.000000D+00  E= 3.461948D-01
              MO Center= -3.1D-16,  7.7D-16, -1.5D-14, r^2= 1.1D+01
   Bfn.  Coefficient  Atom+Function         Bfn.  Coefficient  Atom+Function  
  ----- ------------  ---------------      ----- ------------  ---------------
    22      1.441442  1 Li d  1              52      1.441442  2 Li d  1       
     8     -0.865301  1 Li px                38      0.865301  2 Li px         
    20      0.826058  1 Li d -1              50      0.826058  2 Li d -1       
     9      0.495885  1 Li py                39     -0.495885  2 Li py         
    17     -0.216570  1 Li d  1              47     -0.216570  2 Li d  1       

 Vector   27  Occ=0.000000D+00  E= 3.461948D-01
              MO Center=  9.1D-18,  1.1D-16, -1.4D-14, r^2= 1.1D+01
   Bfn.  Coefficient  Atom+Function         Bfn.  Coefficient  Atom+Function  
  ----- ------------  ---------------      ----- ------------  ---------------
    20      1.441442  1 Li d -1              50      1.441442  2 Li d -1       
     9      0.865301  1 Li py                39     -0.865301  2 Li py         
    22     -0.826058  1 Li d  1              52     -0.826058  2 Li d  1       
     8      0.495885  1 Li px                38     -0.495885  2 Li px         
    15     -0.216570  1 Li d -1              45     -0.216570  2 Li d -1       

 Vector   28  Occ=0.000000D+00  E= 4.032770D-01
              MO Center=  1.6D-15, -1.9D-15,  2.8D-13, r^2= 1.3D+01
   Bfn.  Coefficient  Atom+Function         Bfn.  Coefficient  Atom+Function  
  ----- ------------  ---------------      ----- ------------  ---------------
     4      5.979029  1 Li s                 34     -5.979029  2 Li s          
    10      5.831817  1 Li pz                40      5.831817  2 Li pz         
     3      2.646316  1 Li s                 33     -2.646316  2 Li s          
    21      2.161451  1 Li d  0              51     -2.161451  2 Li d  0       
    13      0.695014  1 Li pz                43      0.695014  2 Li pz         

 Vector   29  Occ=0.000000D+00  E= 4.708439D-01
              MO Center= -8.5D-16, -1.6D-15,  3.7D-13, r^2= 7.3D+00
   Bfn.  Coefficient  Atom+Function         Bfn.  Coefficient  Atom+Function  
  ----- ------------  ---------------      ----- ------------  ---------------
     6      0.891099  1 Li py                36      0.891099  2 Li py         
     9     -0.853877  1 Li py                39     -0.853877  2 Li py         
     5      0.412610  1 Li px                35      0.412610  2 Li px         
     8     -0.395375  1 Li px                38     -0.395375  2 Li px         
    12      0.331075  1 Li py                42      0.331075  2 Li py         

 Vector   30  Occ=0.000000D+00  E= 4.708439D-01
              MO Center= -8.0D-16,  6.5D-16,  3.2D-13, r^2= 7.3D+00
   Bfn.  Coefficient  Atom+Function         Bfn.  Coefficient  Atom+Function  
  ----- ------------  ---------------      ----- ------------  ---------------
     5      0.891099  1 Li px                35      0.891099  2 Li px         
     8     -0.853877  1 Li px                38     -0.853877  2 Li px         
     6     -0.412610  1 Li py                36     -0.412610  2 Li py         
     9      0.395375  1 Li py                39      0.395375  2 Li py         
    11      0.331075  1 Li px                41      0.331075  2 Li px         

 Vector   31  Occ=0.000000D+00  E= 4.847584D-01
              MO Center=  2.3D-14, -2.1D-14,  8.8D-14, r^2= 7.0D+00
   Bfn.  Coefficient  Atom+Function         Bfn.  Coefficient  Atom+Function  
  ----- ------------  ---------------      ----- ------------  ---------------
     4      3.150892  1 Li s                 34     -3.150892  2 Li s          
    10      1.937307  1 Li pz                40      1.937307  2 Li pz         
    21      1.402498  1 Li d  0              51     -1.402498  2 Li d  0       
     3      1.193696  1 Li s                 33     -1.193696  2 Li s          
    13      0.722948  1 Li pz                43      0.722948  2 Li pz         

 Vector   32  Occ=0.000000D+00  E= 4.863695D-01
              MO Center= -2.6D-14,  2.7D-15, -3.7D-13, r^2= 8.0D+00
   Bfn.  Coefficient  Atom+Function         Bfn.  Coefficient  Atom+Function  
  ----- ------------  ---------------      ----- ------------  ---------------
     8      1.511264  1 Li px                38     -1.511264  2 Li px         
     5     -1.004112  1 Li px                35      1.004112  2 Li px         
    11     -0.688506  1 Li px                41      0.688506  2 Li px         
    22     -0.373863  1 Li d  1              52     -0.373863  2 Li d  1       
     9     -0.212761  1 Li py                39      0.212761  2 Li py         

 Vector   33  Occ=0.000000D+00  E= 4.863695D-01
              MO Center=  4.2D-15,  2.1D-14, -3.3D-13, r^2= 8.0D+00
   Bfn.  Coefficient  Atom+Function         Bfn.  Coefficient  Atom+Function  
  ----- ------------  ---------------      ----- ------------  ---------------
     9      1.511264  1 Li py                39     -1.511264  2 Li py         
     6     -1.004112  1 Li py                36      1.004112  2 Li py         
    12     -0.688506  1 Li py                42      0.688506  2 Li py         
    20      0.373863  1 Li d -1              50      0.373863  2 Li d -1       
     8      0.212761  1 Li px                38     -0.212761  2 Li px         

 Vector   34  Occ=0.000000D+00  E= 5.173571D-01
              MO Center=  8.5D-16,  2.0D-15, -4.5D-13, r^2= 7.3D+00
   Bfn.  Coefficient  Atom+Function         Bfn.  Coefficient  Atom+Function  
  ----- ------------  ---------------      ----- ------------  ---------------
    10     -1.045089  1 Li pz                40      1.045089  2 Li pz         
     7      0.988444  1 Li pz                37     -0.988444  2 Li pz         
     3      0.671309  1 Li s                 33      0.671309  2 Li s          
    21     -0.552318  1 Li d  0              51     -0.552318  2 Li d  0       
     4     -0.410279  1 Li s                 34     -0.410279  2 Li s          


 center of mass
 --------------
 x =   0.00000000 y =   0.00000000 z =   0.00000000

 moments of inertia (a.u.)
 ------------------
         118.372509417972           0.000000000000           0.000000000000
           0.000000000000         118.372509417972           0.000000000000
           0.000000000000           0.000000000000           0.000000000000

  Mulliken analysis of the total density
  --------------------------------------

    Atom       Charge   Shell Charges
 -----------   ------   -------------------------------------------------------
    1 Li   3     3.00   2.00 -0.02  0.40  0.54  0.02  0.04  0.01  0.00  0.00  0.00
    2 Li   3     3.00   2.00 -0.02  0.40  0.54  0.02  0.04  0.01  0.00  0.00  0.00

       Multipole analysis of the density wrt the origin
       ------------------------------------------------

     L   x y z        total         open         nuclear
     -   - - -        -----         ----         -------
     0   0 0 0     -0.000000      0.000000      6.000000

     1   1 0 0      0.000000      0.000000      0.000000
     1   0 1 0     -0.000000      0.000000      0.000000
     1   0 0 1      0.000000      0.000000      0.000000

     2   2 0 0    -12.830978      0.000000      0.000000
     2   1 1 0     -0.000000      0.000000      0.000000
     2   1 0 1      0.000000      0.000000      0.000000
     2   0 2 0    -12.830978      0.000000      0.000000
     2   0 1 1     -0.000000      0.000000      0.000000
     2   0 0 2     -0.564920      0.000000     50.615383


 Parallel integral file used       9 records with       0 large values

                   NWChem Extensible Many-Electron Theory Module
                   ---------------------------------------------

              ======================================================
                   This portion of the program was automatically
                  generated by a Tensor Contraction Engine (TCE).
                  The development of this portion of the program
                 and TCE was supported by US Department of Energy,
                Office of Science, Office of Basic Energy Science.
                      TCE is a product of Battelle and PNNL.
              Please cite: S.Hirata, J.Phys.Chem.A 107, 9887 (2003).
              ======================================================

                                    Li2-REMOVE


            General Information
            -------------------
      Number of processors :     1
         Wavefunction type : Restricted Hartree-Fock
          No. of electrons :     6
           Alpha electrons :     3
            Beta electrons :     3
           No. of orbitals :   120
            Alpha orbitals :    60
             Beta orbitals :    60
        Alpha frozen cores :     0
         Beta frozen cores :     0
     Alpha frozen virtuals :     0
      Beta frozen virtuals :     0
         Spin multiplicity : singlet 
    Number of AO functions :    60
       Number of AO shells :    20
        Use of symmetry is : off
      Symmetry adaption is : off
         Schwarz screening : 0.10D-09

          Correlation Information
          -----------------------
          Calculation type : Coupled-cluster singles & doubles                           
   Perturbative correction : none                                                        
            Max iterations :      200
        Residual threshold : 0.10D-05
     T(0) DIIS level shift : 0.00D+00
     L(0) DIIS level shift : 0.00D+00
     T(1) DIIS level shift : 0.00D+00
     L(1) DIIS level shift : 0.00D+00
     T(R) DIIS level shift : 0.00D+00
     T(I) DIIS level shift : 0.00D+00
   CC-T/L Amplitude update :  5-th order DIIS
                I/O scheme : Global Array Library
        L-threshold :  0.10D-05
        EOM-threshold :  0.10D-05
 no EOMCCSD initial starts read in
 TCE RESTART OPTIONS
 READ_INT:   F
 WRITE_INT:  F
 READ_TA:    F
 WRITE_TA:   F
 READ_XA:    F
 WRITE_XA:   F
 READ_IN3:   F
 WRITE_IN3:  F
 SLICE:      F
 D4D5:       F
 quantumc:   F
 qrotation:  F
 qducc:      T
 nacto:                         0
 nrotv:                         0
 nrot:                          0

            Memory Information
            ------------------
          Available GA space size is    1610609136 doubles
          Available MA space size is    1610610004 doubles

 Maximum block size supplied by input
 Maximum block size         5 doubles

 tile_dim =      5

 Block   Spin    Irrep     Size     Offset   Alpha
 -------------------------------------------------
   1    alpha     a      3 doubles       0       1
   2    beta      a      3 doubles       3       1
   3    alpha     a      4 doubles       6       3
   4    alpha     a      5 doubles      10       4
   5    alpha     a      5 doubles      15       5
   6    alpha     a      5 doubles      20       6
   7    alpha     a      4 doubles      25       7
   8    alpha     a      5 doubles      29       8
   9    alpha     a      5 doubles      34       9
  10    alpha     a      5 doubles      39      10
  11    alpha     a      4 doubles      44      11
  12    alpha     a      5 doubles      48      12
  13    alpha     a      5 doubles      53      13
  14    alpha     a      5 doubles      58      14
  15    beta      a      4 doubles      63       3
  16    beta      a      5 doubles      67       4
  17    beta      a      5 doubles      72       5
  18    beta      a      5 doubles      77       6
  19    beta      a      4 doubles      82       7
  20    beta      a      5 doubles      86       8
  21    beta      a      5 doubles      91       9
  22    beta      a      5 doubles      96      10
  23    beta      a      4 doubles     101      11
  24    beta      a      5 doubles     105      12
  25    beta      a      5 doubles     110      13
  26    beta      a      5 doubles     115      14

 Global array virtual files algorithm will be used

 Parallel file system coherency ......... OK

 Integral file          = ./Li2-REMOVE.aoints.0
 Record size in doubles =    65536    No. of integs per rec  =    43688
 Max. records in memory =       54    Max. records in file   =  1545290
 No. of bits per label  =        8    No. of bits per value  =       64


 #quartets = 2.216D+04 #integrals = 3.711D+05 #direct =  0.0% #cached =100.0%


 Fock matrix recomputed
 1-e file size   =             3600
 1-e file name   = ./Li2-REMOVE.f1
 Cpu & wall time / sec            0.2            0.3
 4-electron integrals stored in orbital form

 v2    file size   =          1905240
 4-index algorithm nr.  13 is used
 imaxsize =       30
 imaxsize ichop =        0
 Cpu & wall time / sec            4.6            4.7
 T1-number-of-tasks                   12

 t1 file size   =              171
 t1 file name   = ./Li2-REMOVE.t1
 t1 file handle =       -998
 T2-number-of-boxes                  222

 t2 file size   =            45090
 t2 file name   = ./Li2-REMOVE.t2
 t2 file handle =       -996

 CCSD iterations
 -----------------------------------------------------------------
 Iter          Residuum       Correlation     Cpu    Wall    V2*C2
 -----------------------------------------------------------------
    1   0.0883255720826  -0.0435668075317     1.8     1.9     0.5
    2   0.0248370422196  -0.0515770821725     1.8     2.0     0.5
    3   0.0123657819319  -0.0546192683368     1.9     2.0     0.5
    4   0.0070999420493  -0.0558897545282     1.9     2.0     0.6
    5   0.0042551875296  -0.0565554818847     1.9     1.9     0.5
 MICROCYCLE DIIS UPDATE:                    5                    5
    6   0.0006128172804  -0.0573921044433     1.8     2.0     0.5
    7   0.0002866984548  -0.0573980445180     1.9     1.9     0.6
    8   0.0001685437395  -0.0574002616892     1.9     2.0     0.6
    9   0.0001048517938  -0.0574019813743     1.9     2.0     0.6
   10   0.0000668848172  -0.0574035834139     1.8     2.0     0.5
 MICROCYCLE DIIS UPDATE:                   10                    5
   11   0.0000127196256  -0.0574066412729     1.9     2.0     0.6
   12   0.0000068341545  -0.0574073521629     1.8     2.0     0.5
   13   0.0000042276997  -0.0574077762447     1.8     2.0     0.5
   14   0.0000027767051  -0.0574079795704     1.8     2.0     0.6
   15   0.0000018712942  -0.0574080842953     1.9     2.0     0.6
 MICROCYCLE DIIS UPDATE:                   15                    5
   16   0.0000003941279  -0.0574082276473     1.8     2.0     0.5
 -----------------------------------------------------------------
 Iterations converged
 CCSD correlation energy / hartree =        -0.057408227647282
 CCSD total energy / hartree       =       -14.927200574687971

 Singles contributions

 Doubles contributions
 Ground state specification:
 exp(T)|Ref>~(1+T)|Ref>
 ------- a(p)+/a(q) strings ----------

 singles norm

 doubles norm

 Reference string
   1.0000000000000000      :(1a)+ (2a)+ (3a)+ (1b)+ (2b)+ (3b)+ |0>

 Singles strings

 Doubles strings
 -------------------------------------
 enrep_tce =    1.5493405035857069     
  EHF(total)         =       -14.86979235
  Shift (HFtot-HFA)  =         0.00000000
 ALL OCCUPIED ORBITALS ARE ACTIVE IN DUCC --> NO SHIFT
 Number of active orbitals                   10
 Number of active alpha electrons                    3
 Number of active beta electrons                    3
  nos                     6
  nvs                   114
 noas                     3
 nobs                     3
 nvas                    57
 nvbs                    57
 nactv                     7
 From DUCC CCSD corr. ene.  -5.7408227647275475E-002
 From DUCC CCSD corr. ene.-e-part   7.0366404494728044E-002
 begin_one_electron_integrals
    1    1        -4.9576108041
    1    3         0.1187044615
    1    7         0.0054182607
    2    2        -4.9576740767
    2    4        -0.0748867710
    2   10         0.0717045494
    3    1         0.1187044615
    3    3        -1.4143681787
    3    7        -0.1344990414
    4    2        -0.0748867710
    4    4        -0.9092788608
    4   10         0.2813251707
    5    5        -0.8371997326
    6    6        -0.8371997326
    7    1         0.0054182607
    7    3        -0.1344990414
    7    7        -0.7622653481
    8    8        -0.6388552501
    9    9        -0.6388552501
   10    2         0.0717045494
   10    4         0.2813251707
   10   10        -0.6981897442
 end_one_electron_integrals
 begin_two_electron_integrals
    1    1    1    1        0.9040674122
    2    2    1    1        0.9041296579
    2    1    2    1        0.7320968718
    2    2    2    2        0.9041690879
    3    1    1    1       -0.0592145591
    3    3    1    1        0.2575625958
    3    1    2    2       -0.0592205292
    3    2    2    1       -0.0603961089
    3    3    2    2        0.2575640469
    3    1    3    1        0.0052699998
    3    2    3    2        0.0052756743
    3    3    3    1       -0.0010637148
    3    3    3    3        0.2188192832
    4    2    1    1        0.0366341596
    4    4    1    1        0.1642951785
    4    1    2    1        0.0356050341
    4    2    2    2        0.0366317849
    4    3    2    1       -0.0473541540
    4    4    2    2        0.1642933433
    4    1    3    2       -0.0042490436
    4    2    3    1       -0.0042357907
    4    2    3    3        0.0022622350
    4    3    3    2        0.0014286111
    4    4    3    1       -0.0008638311
    4    4    3    3        0.1405549977
    4    1    4    1        0.0032954458
    4    2    4    2        0.0033074380
    4    3    4    1       -0.0003459991
    4    3    4    3        0.0210581179
    4    4    4    2       -0.0000236961
    4    4    4    4        0.1334405124
    5    5    1    1        0.1490109481
    5    5    2    2        0.1490124209
    5    5    3    1        0.0001544381
    5    5    3    3        0.1444787911
    5    5    4    2        0.0002362124
    5    5    4    4        0.1137023350
    5    1    5    1        0.0003974865
    5    2    5    2        0.0003813123
    5    3    5    1        0.0010278719
    5    3    5    3        0.0237246172
    5    4    5    2       -0.0004658014
    5    4    5    4        0.0078875032
    5    5    5    5        0.1276193857
    6    6    1    1        0.1490109481
    6    6    2    2        0.1490124209
    6    6    3    1        0.0001544381
    6    6    3    3        0.1444787911
    6    6    4    2        0.0002362124
    6    6    4    4        0.1137023350
    6    6    5    5        0.1144547888
    6    1    6    1        0.0003974865
    6    2    6    2        0.0003813123
    6    3    6    1        0.0010278719
    6    3    6    3        0.0237246172
    6    4    6    2       -0.0004658014
    6    4    6    4        0.0078875032
    6    5    6    5        0.0065822985
    6    6    6    6        0.1276193857
    7    1    1    1       -0.0050643191
    7    3    1    1        0.0269380053
    7    7    1    1        0.1395429524
    7    1    2    2       -0.0050594342
    7    2    2    1       -0.0067102495
    7    3    2    2        0.0269333395
    7    4    2    1        0.0323571191
    7    7    2    2        0.1395425019
    7    1    3    1        0.0009990066
    7    1    3    3        0.0015970935
    7    2    3    2        0.0009725303
    7    3    3    1        0.0004467791
    7    3    3    3        0.0238062605
    7    4    3    2       -0.0005929594
    7    7    3    1       -0.0001005648
    7    7    3    3        0.1276683922
    7    1    4    2       -0.0002239247
    7    1    4    4       -0.0006192340
    7    2    4    1       -0.0002450307
    7    2    4    3        0.0008060992
    7    3    4    2        0.0008309304
    7    3    4    4       -0.0011826702
    7    4    4    1       -0.0005652246
    7    4    4    3       -0.0231410618
    7    7    4    2        0.0000792867
    7    7    4    4        0.1234058335
    7    1    5    5        0.0003162086
    7    3    5    5        0.0092788698
    7    5    5    1        0.0000410750
    7    5    5    3        0.0000910852
    7    7    5    5        0.1042302740
    7    1    6    6        0.0003162086
    7    3    6    6        0.0092788698
    7    6    6    1        0.0000410750
    7    6    6    3        0.0000910852
    7    7    6    6        0.1042302740
    7    1    7    1        0.0006428349
    7    2    7    2        0.0006031293
    7    3    7    1        0.0011330460
    7    3    7    3        0.0175573587
    7    4    7    2       -0.0008690413
    7    4    7    4        0.0418566816
    7    5    7    5        0.0036582452
    7    6    7    6        0.0036582452
    7    7    7    1       -0.0000285060
    7    7    7    3        0.0002827245
    7    7    7    7        0.1210061840
    8    8    1    1        0.1176215194
    8    5    2    1        0.0248821079
    8    6    2    1        0.0003917922
    8    8    2    2        0.1176214098
    8    5    3    2       -0.0003012095
    8    6    3    2       -0.0000047428
    8    8    3    1       -0.0000826850
    8    8    3    3        0.1134437006
    8    5    4    1       -0.0001829464
    8    5    4    3       -0.0157378452
    8    6    4    1       -0.0000028807
    8    6    4    3       -0.0002478072
    8    8    4    2       -0.0000019173
    8    8    4    4        0.1069386089
    8    1    5    2        0.0002690689
    8    1    5    4       -0.0002935529
    8    2    5    1        0.0002778402
    8    2    5    3        0.0005975190
    8    3    5    2        0.0004262207
    8    3    5    4       -0.0052102121
    8    4    5    1       -0.0005128495
    8    4    5    3       -0.0111333751
    8    7    5    2       -0.0001284415
    8    7    5    4        0.0066852749
    8    8    5    5        0.1077541369
    8    1    6    2        0.0000042367
    8    1    6    4       -0.0000046223
    8    2    6    1        0.0000043749
    8    2    6    3        0.0000094085
    8    3    6    2        0.0000067112
    8    3    6    4       -0.0000820397
    8    4    6    1       -0.0000080753
    8    4    6    3       -0.0001753055
    8    7    6    2       -0.0000020224
    8    7    6    4        0.0001052659
    8    8    6    5        0.0001438087
    8    8    6    6        0.0986233361
    8    2    7    5        0.0000158167
    8    2    7    6        0.0000002490
    8    4    7    5        0.0047089647
    8    4    7    6        0.0000741471
    8    5    7    2       -0.0003432280
    8    5    7    4        0.0222120125
    8    6    7    2       -0.0000054044
    8    6    7    4        0.0003497490
    8    8    7    1       -0.0000549811
    8    8    7    3        0.0004454091
    8    8    7    7        0.1013184709
    8    1    8    1        0.0001781536
    8    2    8    2        0.0001830586
    8    3    8    1        0.0002870654
    8    3    8    3        0.0044799300
    8    4    8    2       -0.0003259576
    8    4    8    4        0.0147233096
    8    5    8    5        0.0210822896
    8    6    8    5        0.0002876433
    8    6    8    6        0.0028190425
    8    7    8    1       -0.0000859935
    8    7    8    3       -0.0039053382
    8    7    8    7        0.0085883359
    8    8    8    8        0.1042628231
    9    9    1    1        0.1176215194
    9    5    2    1       -0.0003917922
    9    6    2    1        0.0248821079
    9    9    2    2        0.1176214098
    9    5    3    2        0.0000047428
    9    6    3    2       -0.0003012095
    9    9    3    1       -0.0000826850
    9    9    3    3        0.1134437006
    9    5    4    1        0.0000028807
    9    5    4    3        0.0002478072
    9    6    4    1       -0.0001829464
    9    6    4    3       -0.0157378452
    9    9    4    2       -0.0000019173
    9    9    4    4        0.1069386089
    9    1    5    2       -0.0000042367
    9    1    5    4        0.0000046223
    9    2    5    1       -0.0000043749
    9    2    5    3       -0.0000094085
    9    3    5    2       -0.0000067112
    9    3    5    4        0.0000820397
    9    4    5    1        0.0000080753
    9    4    5    3        0.0001753055
    9    7    5    2        0.0000020224
    9    7    5    4       -0.0001052659
    9    8    5    5       -0.0001438087
    9    9    5    5        0.0986233361
    9    1    6    2        0.0002690689
    9    1    6    4       -0.0002935529
    9    2    6    1        0.0002778402
    9    2    6    3        0.0005975190
    9    3    6    2        0.0004262207
    9    3    6    4       -0.0052102121
    9    4    6    1       -0.0005128495
    9    4    6    3       -0.0111333751
    9    7    6    2       -0.0001284415
    9    7    6    4        0.0066852749
    9    8    6    5        0.0045654004
    9    8    6    6        0.0001438087
    9    9    6    5       -0.0001438087
    9    9    6    6        0.1077541369
    9    2    7    5       -0.0000002490
    9    2    7    6        0.0000158167
    9    4    7    5       -0.0000741471
    9    4    7    6        0.0047089647
    9    5    7    2        0.0000054044
    9    5    7    4       -0.0003497490
    9    6    7    2       -0.0003432280
    9    6    7    4        0.0222120125
    9    9    7    1       -0.0000549811
    9    9    7    3        0.0004454091
    9    9    7    7        0.1013184709
    9    5    8    5       -0.0002876433
    9    5    8    6        0.0028099841
    9    6    8    5        0.0154532631
    9    6    8    6        0.0002876433
    9    9    8    8        0.0936528657
    9    1    9    1        0.0001781536
    9    2    9    2        0.0001830586
    9    3    9    1        0.0002870654
    9    3    9    3        0.0044799300
    9    4    9    2       -0.0003259576
    9    4    9    4        0.0147233096
    9    5    9    5        0.0028190425
    9    6    9    5       -0.0002876433
    9    6    9    6        0.0210822896
    9    7    9    1       -0.0000859935
    9    7    9    3       -0.0039053382
    9    7    9    7        0.0085883359
    9    8    9    8        0.0053049787
    9    9    9    9        0.1042628231
   10    2    1    1       -0.0354057871
   10    4    1    1       -0.0560006664
   10   10    1    1        0.1356785618
   10    1    2    1       -0.0346390936
   10    2    2    2       -0.0354044714
   10    3    2    1        0.0399704982
   10    4    2    2       -0.0560000267
   10    7    2    1        0.0001082300
   10   10    2    2        0.1356779282
   10    1    3    2        0.0041682286
   10    2    3    1        0.0041577771
   10    2    3    3       -0.0018962219
   10    3    3    2       -0.0012527648
   10    4    3    1        0.0006466768
   10    4    3    3       -0.0387878006
   10    7    3    2        0.0000626668
   10   10    3    1       -0.0006536638
   10   10    3    3        0.1181865366
   10    1    4    1       -0.0031923455
   10    1    4    3        0.0004161093
   10    2    4    2       -0.0032021482
   10    2    4    4       -0.0000164167
   10    3    4    1        0.0005176610
   10    3    4    3       -0.0135158893
   10    4    4    2       -0.0001426932
   10    4    4    4       -0.0212756955
   10    7    4    1        0.0001298802
   10    7    4    3       -0.0040239832
   10   10    4    2        0.0001116297
   10   10    4    4        0.1122609259
   10    2    5    5       -0.0001509916
   10    4    5    5       -0.0210837709
   10    5    5    2        0.0003739957
   10    5    5    4       -0.0027866765
   10    8    5    1        0.0002621676
   10    8    5    3        0.0026846558
   10    9    5    1       -0.0000041281
   10    9    5    3       -0.0000422724
   10   10    5    5        0.0981643446
   10    2    6    6       -0.0001509916
   10    4    6    6       -0.0210837709
   10    6    6    2        0.0003739957
   10    6    6    4       -0.0027866765
   10    8    6    1        0.0000041281
   10    8    6    3        0.0000422724
   10    9    6    1        0.0002621676
   10    9    6    3        0.0026846558
   10   10    6    6        0.0981643446
   10    1    7    2        0.0003102225
   10    1    7    4        0.0004317974
   10    2    7    1        0.0002934582
   10    2    7    3       -0.0006606088
   10    2    7    7       -0.0000607755
   10    3    7    2       -0.0005393735
   10    3    7    4        0.0121344986
   10    4    7    1        0.0003011808
   10    4    7    3       -0.0036292718
   10    4    7    7       -0.0109514712
   10    7    7    2        0.0001821458
   10    7    7    4        0.0140997477
   10    8    7    5        0.0016430435
   10    8    7    6        0.0000258713
   10    9    7    5       -0.0000258713
   10    9    7    6        0.0016430435
   10   10    7    1       -0.0003402892
   10   10    7    3       -0.0001452669
   10   10    7    7        0.1081453564
   10    1    8    5        0.0001439501
   10    1    8    6        0.0000022666
   10    2    8    8        0.0000215546
   10    3    8    5        0.0094316583
   10    3    8    6        0.0001485103
   10    4    8    8       -0.0113168475
   10    5    8    1        0.0002359483
   10    5    8    3        0.0023277622
   10    5    8    7       -0.0000491805
   10    6    8    1        0.0000037152
   10    6    8    3        0.0000366528
   10    6    8    7       -0.0000007744
   10    7    8    5        0.0073320471
   10    7    8    6        0.0001154500
   10    8    8    2        0.0001663735
   10    8    8    4        0.0011018770
   10   10    8    8        0.0942823843
   10    1    9    5       -0.0000022666
   10    1    9    6        0.0001439501
   10    2    9    9        0.0000215546
   10    3    9    5       -0.0001485103
   10    3    9    6        0.0094316583
   10    4    9    9       -0.0113168475
   10    5    9    1       -0.0000037152
   10    5    9    3       -0.0000366528
   10    5    9    7        0.0000007744
   10    6    9    1        0.0002359483
   10    6    9    3        0.0023277622
   10    6    9    7       -0.0000491805
   10    7    9    5       -0.0001154500
   10    7    9    6        0.0073320471
   10    9    9    2        0.0001663735
   10    9    9    4        0.0011018770
   10   10    9    9        0.0942823843
   10    1   10    1        0.0030997087
   10    2   10    2        0.0031074277
   10    3   10    1       -0.0005091075
   10    3   10    3        0.0119226247
   10    4   10    2        0.0001549229
   10    4   10    4        0.0181137815
   10    5   10    5        0.0030764560
   10    6   10    6        0.0030764560
   10    7   10    1       -0.0000998266
   10    7   10    3        0.0000001077
   10    7   10    7        0.0143501647
   10    8   10    8        0.0042883224
   10    9   10    9        0.0042883224
   10   10   10    2       -0.0001264885
   10   10   10    4       -0.0101669973
   10   10   10   10        0.1033567555
 end_two_electron_integrals
 onebody.inp
     -4.9576108041     1
      0.0000000000     2
     -4.9576740767     3
      0.1187044615     4
      0.0000000000     5
     -1.4143681787     6
      0.0000000000     7
     -0.0748867710     8
      0.0000000000     9
     -0.9092788608    10
     -0.0000000000    11
      0.0000000000    12
     -0.0000000000    13
      0.0000000000    14
     -0.8371997326    15
     -0.0000000000    16
      0.0000000000    17
     -0.0000000000    18
      0.0000000000    19
      0.0000000000    20
     -0.8371997326    21
      0.0054182607    22
      0.0000000000    23
     -0.1344990414    24
     -0.0000000000    25
      0.0000000000    26
      0.0000000000    27
     -0.7622653481    28
     -0.0000000000    29
     -0.0000000000    30
     -0.0000000000    31
     -0.0000000000    32
      0.0000000000    33
      0.0000000000    34
     -0.0000000000    35
     -0.6388552501    36
     -0.0000000000    37
      0.0000000000    38
      0.0000000000    39
      0.0000000000    40
      0.0000000000    41
      0.0000000000    42
      0.0000000000    43
     -0.0000000000    44
     -0.6388552501    45
     -0.0000000000    46
      0.0717045494    47
     -0.0000000000    48
      0.2813251707    49
      0.0000000000    50
      0.0000000000    51
     -0.0000000000    52
      0.0000000000    53
     -0.0000000000    54
     -0.6981897442    55
 twobody.inp
    1    1    1    1        0.9040674122
    1    1    1    3       -0.0592145591
    1    1    1    7       -0.0050643191
    1    1    2    2        0.9041296579
    1    1    2    4        0.0366341596
    1    1    2   10       -0.0354057871
    1    1    3    1       -0.0592145591
    1    1    3    3        0.2575625958
    1    1    3    7        0.0269380053
    1    1    4    2        0.0366341596
    1    1    4    4        0.1642951785
    1    1    4   10       -0.0560006664
    1    1    5    5        0.1490109481
    1    1    6    6        0.1490109481
    1    1    7    1       -0.0050643191
    1    1    7    3        0.0269380053
    1    1    7    7        0.1395429524
    1    1    8    8        0.1176215194
    1    1    9    9        0.1176215194
    1    1   10    2       -0.0354057871
    1    1   10    4       -0.0560006664
    1    1   10   10        0.1356785618
    1    2    1    2        0.7320968718
    1    2    1    4        0.0356050341
    1    2    1   10       -0.0346390936
    1    2    2    1        0.7321082695
    1    2    2    3       -0.0603961089
    1    2    2    7       -0.0067102495
    1    2    3    2       -0.0603943568
    1    2    3    4       -0.0473541540
    1    2    3   10        0.0399704982
    1    2    4    1        0.0356036027
    1    2    4    3       -0.0473526019
    1    2    4    7        0.0323571191
    1    2    5    8        0.0248821079
    1    2    5    9       -0.0003917922
    1    2    6    8        0.0003917922
    1    2    6    9        0.0248821079
    1    2    7    2       -0.0067068272
    1    2    7    4        0.0323577013
    1    2    7   10        0.0001082300
    1    2    8    5        0.0248819597
    1    2    8    6        0.0003917898
    1    2    9    5       -0.0003917898
    1    2    9    6        0.0248819597
    1    2   10    1       -0.0346379522
    1    2   10    3        0.0399697355
    1    2   10    7        0.0001087168
    1    3    1    1       -0.0592145591
    1    3    1    3        0.0052699998
    1    3    1    7        0.0009990066
    1    3    2    2       -0.0592205292
    1    3    2    4       -0.0042357907
    1    3    2   10        0.0041577771
    1    3    3    1        0.0068350097
    1    3    3    3       -0.0010637148
    1    3    3    7        0.0004467791
    1    3    4    2       -0.0047562698
    1    3    4    4       -0.0008638311
    1    3    4   10        0.0006466768
    1    3    5    5        0.0001544381
    1    3    6    6        0.0001544381
    1    3    7    1        0.0011206191
    1    3    7    3        0.0002629900
    1    3    7    7       -0.0001005648
    1    3    8    8       -0.0000826850
    1    3    9    9       -0.0000826850
    1    3   10    2        0.0044780288
    1    3   10    4        0.0006498821
    1    3   10   10       -0.0006536638
    1    4    1    2        0.0356050341
    1    4    1    4        0.0032954458
    1    4    1   10       -0.0031923455
    1    4    2    1        0.0356036027
    1    4    2    3       -0.0042490436
    1    4    2    7       -0.0002450307
    1    4    3    2       -0.0047690218
    1    4    3    4       -0.0003459991
    1    4    3   10        0.0005176610
    1    4    4    1        0.0025031371
    1    4    4    3       -0.0000673075
    1    4    4    7       -0.0005652246
    1    4    5    8       -0.0001829464
    1    4    5    9        0.0000028807
    1    4    6    8       -0.0000028807
    1    4    6    9       -0.0001829464
    1    4    7    2       -0.0001382036
    1    4    7    4       -0.0005573301
    1    4    7   10        0.0001298802
    1    4    8    5       -0.0001806069
    1    4    8    6       -0.0000028438
    1    4    9    5        0.0000028438
    1    4    9    6       -0.0001806069
    1    4   10    1       -0.0024028619
    1    4   10    3        0.0001974063
    1    4   10    7        0.0001347624
    1    5    1    5        0.0003974865
    1    5    2    8        0.0002778402
    1    5    2    9       -0.0000043749
    1    5    3    5        0.0010278719
    1    5    4    8       -0.0005128495
    1    5    4    9        0.0000080753
    1    5    5    1        0.0003726932
    1    5    5    3        0.0010031214
    1    5    5    7        0.0000410750
    1    5    7    5        0.0000544326
    1    5    8    2        0.0002441795
    1    5    8    4       -0.0005099035
    1    5    8   10        0.0002621676
    1    5    9    2       -0.0000038448
    1    5    9    4        0.0000080289
    1    5    9   10       -0.0000041281
    1    5   10    8        0.0002643535
    1    5   10    9       -0.0000041625
    1    6    1    6        0.0003974865
    1    6    2    8        0.0000043749
    1    6    2    9        0.0002778402
    1    6    3    6        0.0010278719
    1    6    4    8       -0.0000080753
    1    6    4    9       -0.0005128495
    1    6    6    1        0.0003726932
    1    6    6    3        0.0010031214
    1    6    6    7        0.0000410750
    1    6    7    6        0.0000544326
    1    6    8    2        0.0000038448
    1    6    8    4       -0.0000080289
    1    6    8   10        0.0000041281
    1    6    9    2        0.0002441795
    1    6    9    4       -0.0005099035
    1    6    9   10        0.0002621676
    1    6   10    8        0.0000041625
    1    6   10    9        0.0002643535
    1    7    1    1       -0.0050643191
    1    7    1    3        0.0009990066
    1    7    1    7        0.0006428349
    1    7    2    2       -0.0050594342
    1    7    2    4       -0.0002239247
    1    7    2   10        0.0002934582
    1    7    3    1        0.0011206191
    1    7    3    3        0.0015970935
    1    7    3    7        0.0011330460
    1    7    4    2       -0.0001195639
    1    7    4    4       -0.0006192340
    1    7    4   10        0.0003011808
    1    7    5    5        0.0003162086
    1    7    6    6        0.0003162086
    1    7    7    1        0.0005494354
    1    7    7    3        0.0010784876
    1    7    7    7       -0.0000285060
    1    7    8    8       -0.0000549811
    1    7    9    9       -0.0000549811
    1    7   10    2        0.0001824672
    1    7   10    4        0.0002944958
    1    7   10   10       -0.0003402892
    1    8    1    8        0.0001781536
    1    8    2    5        0.0002690689
    1    8    2    6        0.0000042367
    1    8    3    8        0.0002870654
    1    8    4    5       -0.0002935529
    1    8    4    6       -0.0000046223
    1    8    5    2        0.0002365620
    1    8    5    4       -0.0002918246
    1    8    5   10        0.0002359483
    1    8    6    2        0.0000037249
    1    8    6    4       -0.0000045951
    1    8    6   10        0.0000037152
    1    8    7    8       -0.0000859935
    1    8    8    1        0.0001571722
    1    8    8    3        0.0002330107
    1    8    8    7       -0.0000877478
    1    8   10    5        0.0002367625
    1    8   10    6        0.0000037280
    1    9    1    9        0.0001781536
    1    9    2    5       -0.0000042367
    1    9    2    6        0.0002690689
    1    9    3    9        0.0002870654
    1    9    4    5        0.0000046223
    1    9    4    6       -0.0002935529
    1    9    5    2       -0.0000037249
    1    9    5    4        0.0000045951
    1    9    5   10       -0.0000037152
    1    9    6    2        0.0002365620
    1    9    6    4       -0.0002918246
    1    9    6   10        0.0002359483
    1    9    7    9       -0.0000859935
    1    9    9    1        0.0001571722
    1    9    9    3        0.0002330107
    1    9    9    7       -0.0000877478
    1    9   10    5       -0.0000037280
    1    9   10    6        0.0002367625
    1   10    1    2       -0.0346390936
    1   10    1    4       -0.0031923455
    1   10    1   10        0.0030997087
    1   10    2    1       -0.0346379522
    1   10    2    3        0.0041682286
    1   10    2    7        0.0003102225
    1   10    3    2        0.0044880518
    1   10    3    4        0.0004161093
    1   10    3   10       -0.0005091075
    1   10    4    1       -0.0024028619
    1   10    4    3        0.0001233663
    1   10    4    7        0.0004317974
    1   10    5    8        0.0001439501
    1   10    5    9       -0.0000022666
    1   10    6    8        0.0000022666
    1   10    6    9        0.0001439501
    1   10    7    2        0.0001970663
    1   10    7    4        0.0004188800
    1   10    7   10       -0.0000998266
    1   10    8    5        0.0001422280
    1   10    8    6        0.0000022395
    1   10    9    5       -0.0000022395
    1   10    9    6        0.0001422280
    1   10   10    1        0.0023157809
    1   10   10    3       -0.0002213123
    1   10   10    7       -0.0001065263
    2    1    1    2        0.7321082695
    2    1    1    4        0.0356036027
    2    1    1   10       -0.0346379522
    2    1    2    1        0.7320968718
    2    1    2    3       -0.0603943568
    2    1    2    7       -0.0067068272
    2    1    3    2       -0.0603961089
    2    1    3    4       -0.0473526019
    2    1    3   10        0.0399697355
    2    1    4    1        0.0356050341
    2    1    4    3       -0.0473541540
    2    1    4    7        0.0323577013
    2    1    5    8        0.0248819597
    2    1    5    9       -0.0003917898
    2    1    6    8        0.0003917898
    2    1    6    9        0.0248819597
    2    1    7    2       -0.0067102495
    2    1    7    4        0.0323571191
    2    1    7   10        0.0001087168
    2    1    8    5        0.0248821079
    2    1    8    6        0.0003917922
    2    1    9    5       -0.0003917922
    2    1    9    6        0.0248821079
    2    1   10    1       -0.0346390936
    2    1   10    3        0.0399704982
    2    1   10    7        0.0001082300
    2    2    1    1        0.9041296579
    2    2    1    3       -0.0592205292
    2    2    1    7       -0.0050594342
    2    2    2    2        0.9041690879
    2    2    2    4        0.0366317849
    2    2    2   10       -0.0354044714
    2    2    3    1       -0.0592205292
    2    2    3    3        0.2575640469
    2    2    3    7        0.0269333395
    2    2    4    2        0.0366317849
    2    2    4    4        0.1642933433
    2    2    4   10       -0.0560000267
    2    2    5    5        0.1490124209
    2    2    6    6        0.1490124209
    2    2    7    1       -0.0050594342
    2    2    7    3        0.0269333395
    2    2    7    7        0.1395425019
    2    2    8    8        0.1176214098
    2    2    9    9        0.1176214098
    2    2   10    2       -0.0354044714
    2    2   10    4       -0.0560000267
    2    2   10   10        0.1356779282
    2    3    1    2       -0.0603961089
    2    3    1    4       -0.0042490436
    2    3    1   10        0.0041682286
    2    3    2    1       -0.0603943568
    2    3    2    3        0.0052756743
    2    3    2    7        0.0009725303
    2    3    3    2        0.0068227475
    2    3    3    4        0.0014286111
    2    3    3   10       -0.0012527648
    2    3    4    1       -0.0047690218
    2    3    4    3        0.0015995506
    2    3    4    7       -0.0005929594
    2    3    5    8       -0.0003012095
    2    3    5    9        0.0000047428
    2    3    6    8       -0.0000047428
    2    3    6    9       -0.0003012095
    2    3    7    2        0.0010923444
    2    3    7    4       -0.0005288981
    2    3    7   10        0.0000626668
    2    3    8    5       -0.0003122561
    2    3    8    6       -0.0000049168
    2    3    9    5        0.0000049168
    2    3    9    6       -0.0003122561
    2    3   10    1        0.0044880518
    2    3   10    3       -0.0013907774
    2    3   10    7        0.0001065614
    2    4    1    1        0.0366341596
    2    4    1    3       -0.0042357907
    2    4    1    7       -0.0002239247
    2    4    2    2        0.0366317849
    2    4    2    4        0.0033074380
    2    4    2   10       -0.0032021482
    2    4    3    1       -0.0047562698
    2    4    3    3        0.0022622350
    2    4    3    7        0.0008309304
    2    4    4    2        0.0025138174
    2    4    4    4       -0.0000236961
    2    4    4   10       -0.0001426932
    2    4    5    5        0.0002362124
    2    4    6    6        0.0002362124
    2    4    7    1       -0.0001195639
    2    4    7    3        0.0007639390
    2    4    7    7        0.0000792867
    2    4    8    8       -0.0000019173
    2    4    9    9       -0.0000019173
    2    4   10    2       -0.0024113955
    2    4   10    4       -0.0001423659
    2    4   10   10        0.0001116297
    2    5    1    8        0.0002690689
    2    5    1    9       -0.0000042367
    2    5    2    5        0.0003813123
    2    5    3    8        0.0004262207
    2    5    3    9       -0.0000067112
    2    5    4    5       -0.0004658014
    2    5    5    2        0.0003590563
    2    5    5    4       -0.0004641424
    2    5    5   10        0.0003739957
    2    5    7    8       -0.0001284415
    2    5    7    9        0.0000020224
    2    5    8    1        0.0002365620
    2    5    8    3        0.0003718701
    2    5    8    7       -0.0001311807
    2    5    9    1       -0.0000037249
    2    5    9    3       -0.0000058554
    2    5    9    7        0.0000020656
    2    5   10    5        0.0003737726
    2    6    1    8        0.0000042367
    2    6    1    9        0.0002690689
    2    6    2    6        0.0003813123
    2    6    3    8        0.0000067112
    2    6    3    9        0.0004262207
    2    6    4    6       -0.0004658014
    2    6    6    2        0.0003590563
    2    6    6    4       -0.0004641424
    2    6    6   10        0.0003739957
    2    6    7    8       -0.0000020224
    2    6    7    9       -0.0001284415
    2    6    8    1        0.0000037249
    2    6    8    3        0.0000058554
    2    6    8    7       -0.0000020656
    2    6    9    1        0.0002365620
    2    6    9    3        0.0003718701
    2    6    9    7       -0.0001311807
    2    6   10    6        0.0003737726
    2    7    1    2       -0.0067102495
    2    7    1    4       -0.0002450307
    2    7    1   10        0.0003102225
    2    7    2    1       -0.0067068272
    2    7    2    3        0.0009725303
    2    7    2    7        0.0006031293
    2    7    3    2        0.0010923444
    2    7    3    4        0.0008060992
    2    7    3   10       -0.0005393735
    2    7    4    1       -0.0001382036
    2    7    4    3        0.0006250029
    2    7    4    7       -0.0008690413
    2    7    5    8       -0.0003432280
    2    7    5    9        0.0000054044
    2    7    6    8       -0.0000054044
    2    7    6    9       -0.0003432280
    2    7    7    2        0.0005138869
    2    7    7    4       -0.0008569293
    2    7    7   10        0.0001821458
    2    7    8    5       -0.0003439584
    2    7    8    6       -0.0000054159
    2    7    9    5        0.0000054159
    2    7    9    6       -0.0003439584
    2    7   10    1        0.0001970663
    2    7   10    3       -0.0004142269
    2    7   10    7        0.0001917828
    2    8    1    5        0.0002778402
    2    8    1    6        0.0000043749
    2    8    2    8        0.0001830586
    2    8    3    5        0.0005975190
    2    8    3    6        0.0000094085
    2    8    4    8       -0.0003259576
    2    8    5    1        0.0002441795
    2    8    5    3        0.0005795530
    2    8    5    7        0.0000158167
    2    8    6    1        0.0000038448
    2    8    6    3        0.0000091256
    2    8    6    7        0.0000002490
    2    8    7    5        0.0000182391
    2    8    7    6        0.0000002872
    2    8    8    2        0.0001614533
    2    8    8    4       -0.0003254954
    2    8    8   10        0.0001663735
    2    8   10    8        0.0001667721
    2    9    1    5       -0.0000043749
    2    9    1    6        0.0002778402
    2    9    2    9        0.0001830586
    2    9    3    5       -0.0000094085
    2    9    3    6        0.0005975190
    2    9    4    9       -0.0003259576
    2    9    5    1       -0.0000038448
    2    9    5    3       -0.0000091256
    2    9    5    7       -0.0000002490
    2    9    6    1        0.0002441795
    2    9    6    3        0.0005795530
    2    9    6    7        0.0000158167
    2    9    7    5       -0.0000002872
    2    9    7    6        0.0000182391
    2    9    9    2        0.0001614533
    2    9    9    4       -0.0003254954
    2    9    9   10        0.0001663735
    2    9   10    9        0.0001667721
    2   10    1    1       -0.0354057871
    2   10    1    3        0.0041577771
    2   10    1    7        0.0002934582
    2   10    2    2       -0.0354044714
    2   10    2    4       -0.0032021482
    2   10    2   10        0.0031074277
    2   10    3    1        0.0044780288
    2   10    3    3       -0.0018962219
    2   10    3    7       -0.0006606088
    2   10    4    2       -0.0024113955
    2   10    4    4       -0.0000164167
    2   10    4   10        0.0001549229
    2   10    5    5       -0.0001509916
    2   10    6    6       -0.0001509916
    2   10    7    1        0.0001824672
    2   10    7    3       -0.0006001976
    2   10    7    7       -0.0000607755
    2   10    8    8        0.0000215546
    2   10    9    9        0.0000215546
    2   10   10    2        0.0023226408
    2   10   10    4        0.0001541577
    2   10   10   10       -0.0001264885
    3    1    1    1       -0.0592145591
    3    1    1    3        0.0068350097
    3    1    1    7        0.0011206191
    3    1    2    2       -0.0592205292
    3    1    2    4       -0.0047562698
    3    1    2   10        0.0044780288
    3    1    3    1        0.0052699998
    3    1    3    3       -0.0010637148
    3    1    3    7        0.0002629900
    3    1    4    2       -0.0042357907
    3    1    4    4       -0.0008638311
    3    1    4   10        0.0006498821
    3    1    5    5        0.0001544381
    3    1    6    6        0.0001544381
    3    1    7    1        0.0009990066
    3    1    7    3        0.0004467791
    3    1    7    7       -0.0001005648
    3    1    8    8       -0.0000826850
    3    1    9    9       -0.0000826850
    3    1   10    2        0.0041577771
    3    1   10    4        0.0006466768
    3    1   10   10       -0.0006536638
    3    2    1    2       -0.0603943568
    3    2    1    4       -0.0047690218
    3    2    1   10        0.0044880518
    3    2    2    1       -0.0603961089
    3    2    2    3        0.0068227475
    3    2    2    7        0.0010923444
    3    2    3    2        0.0052756743
    3    2    3    4        0.0015995506
    3    2    3   10       -0.0013907774
    3    2    4    1       -0.0042490436
    3    2    4    3        0.0014286111
    3    2    4    7       -0.0005288981
    3    2    5    8       -0.0003122561
    3    2    5    9        0.0000049168
    3    2    6    8       -0.0000049168
    3    2    6    9       -0.0003122561
    3    2    7    2        0.0009725303
    3    2    7    4       -0.0005929594
    3    2    7   10        0.0001065614
    3    2    8    5       -0.0003012095
    3    2    8    6       -0.0000047428
    3    2    9    5        0.0000047428
    3    2    9    6       -0.0003012095
    3    2   10    1        0.0041682286
    3    2   10    3       -0.0012527648
    3    2   10    7        0.0000626668
    3    3    1    1        0.2575625958
    3    3    1    3       -0.0010637148
    3    3    1    7        0.0015970935
    3    3    2    2        0.2575640469
    3    3    2    4        0.0022622350
    3    3    2   10       -0.0018962219
    3    3    3    1       -0.0010637148
    3    3    3    3        0.2188192832
    3    3    3    7        0.0238062605
    3    3    4    2        0.0022622350
    3    3    4    4        0.1405549977
    3    3    4   10       -0.0387878006
    3    3    5    5        0.1444787911
    3    3    6    6        0.1444787911
    3    3    7    1        0.0015970935
    3    3    7    3        0.0238062605
    3    3    7    7        0.1276683922
    3    3    8    8        0.1134437006
    3    3    9    9        0.1134437006
    3    3   10    2       -0.0018962219
    3    3   10    4       -0.0387878006
    3    3   10   10        0.1181865366
    3    4    1    2       -0.0473541540
    3    4    1    4       -0.0003459991
    3    4    1   10        0.0004161093
    3    4    2    1       -0.0473526019
    3    4    2    3        0.0014286111
    3    4    2    7        0.0008060992
    3    4    3    2        0.0015995506
    3    4    3    4        0.0210581179
    3    4    3   10       -0.0135158893
    3    4    4    1       -0.0000673075
    3    4    4    3        0.0212042460
    3    4    4    7       -0.0231410618
    3    4    5    8       -0.0157378452
    3    4    5    9        0.0002478072
    3    4    6    8       -0.0002478072
    3    4    6    9       -0.0157378452
    3    4    7    2        0.0006250029
    3    4    7    4       -0.0224483348
    3    4    7   10       -0.0040239832
    3    4    8    5       -0.0158520204
    3    4    8    6       -0.0002496050
    3    4    9    5        0.0002496050
    3    4    9    6       -0.0158520204
    3    4   10    1        0.0001233663
    3    4   10    3       -0.0147375350
    3    4   10    7       -0.0033790802
    3    5    1    5        0.0010278719
    3    5    2    8        0.0005975190
    3    5    2    9       -0.0000094085
    3    5    3    5        0.0237246172
    3    5    4    8       -0.0111333751
    3    5    4    9        0.0001753055
    3    5    5    1        0.0010031214
    3    5    5    3        0.0183746605
    3    5    5    7        0.0000910852
    3    5    7    5        0.0017464739
    3    5    8    2        0.0005795530
    3    5    8    4       -0.0112914809
    3    5    8   10        0.0026846558
    3    5    9    2       -0.0000091256
    3    5    9    4        0.0001777950
    3    5    9   10       -0.0000422724
    3    5   10    8        0.0025453443
    3    5   10    9       -0.0000400788
    3    6    1    6        0.0010278719
    3    6    2    8        0.0000094085
    3    6    2    9        0.0005975190
    3    6    3    6        0.0237246172
    3    6    4    8       -0.0001753055
    3    6    4    9       -0.0111333751
    3    6    6    1        0.0010031214
    3    6    6    3        0.0183746605
    3    6    6    7        0.0000910852
    3    6    7    6        0.0017464739
    3    6    8    2        0.0000091256
    3    6    8    4       -0.0001777950
    3    6    8   10        0.0000422724
    3    6    9    2        0.0005795530
    3    6    9    4       -0.0112914809
    3    6    9   10        0.0026846558
    3    6   10    8        0.0000400788
    3    6   10    9        0.0025453443
    3    7    1    1        0.0269380053
    3    7    1    3        0.0004467791
    3    7    1    7        0.0011330460
    3    7    2    2        0.0269333395
    3    7    2    4        0.0008309304
    3    7    2   10       -0.0006606088
    3    7    3    1        0.0002629900
    3    7    3    3        0.0238062605
    3    7    3    7        0.0175573587
    3    7    4    2        0.0007639390
    3    7    4    4       -0.0011826702
    3    7    4   10       -0.0036292718
    3    7    5    5        0.0092788698
    3    7    6    6        0.0092788698
    3    7    7    1        0.0010784876
    3    7    7    3        0.0126163638
    3    7    7    7        0.0002827245
    3    7    8    8        0.0004454091
    3    7    9    9        0.0004454091
    3    7   10    2       -0.0006001976
    3    7   10    4       -0.0040130165
    3    7   10   10       -0.0001452669
    3    8    1    8        0.0002870654
    3    8    2    5        0.0004262207
    3    8    2    6        0.0000067112
    3    8    3    8        0.0044799300
    3    8    4    5       -0.0052102121
    3    8    4    6       -0.0000820397
    3    8    5    2        0.0003718701
    3    8    5    4       -0.0052535287
    3    8    5   10        0.0023277622
    3    8    6    2        0.0000058554
    3    8    6    4       -0.0000827217
    3    8    6   10        0.0000366528
    3    8    7    8       -0.0039053382
    3    8    8    1        0.0002330107
    3    8    8    3        0.0036988735
[...]
   10    7    8    5        0.0073320471
   10    7    8    6        0.0001154500
   10    7    9    5       -0.0001154500
   10    7    9    6        0.0073320471
   10    7   10    1       -0.0000998266
   10    7   10    3        0.0000001077
   10    7   10    7        0.0143501647
   10    8    1    5        0.0002643535
   10    8    1    6        0.0000041625
   10    8    2    8        0.0001667721
   10    8    3    5        0.0025453443
   10    8    3    6        0.0000400788
   10    8    4    8        0.0011018770
   10    8    5    1        0.0002621676
   10    8    5    3        0.0026846558
   10    8    5    7        0.0016430435
   10    8    6    1        0.0000041281
   10    8    6    3        0.0000422724
   10    8    6    7        0.0000258713
   10    8    7    5        0.0016430435
   10    8    7    6        0.0000258713
   10    8    8    2        0.0001663735
   10    8    8    4        0.0011018770
   10    8    8   10        0.0042883224
   10    8   10    8        0.0042883224
   10    9    1    5       -0.0000041625
   10    9    1    6        0.0002643535
   10    9    2    9        0.0001667721
   10    9    3    5       -0.0000400788
   10    9    3    6        0.0025453443
   10    9    4    9        0.0011018770
   10    9    5    1       -0.0000041281
   10    9    5    3       -0.0000422724
   10    9    5    7       -0.0000258713
   10    9    6    1        0.0002621676
   10    9    6    3        0.0026846558
   10    9    6    7        0.0016430435
   10    9    7    5       -0.0000258713
   10    9    7    6        0.0016430435
   10    9    9    2        0.0001663735
   10    9    9    4        0.0011018770
   10    9    9   10        0.0042883224
   10    9   10    9        0.0042883224
   10   10    1    1        0.1356785618
   10   10    1    3       -0.0006536638
   10   10    1    7       -0.0003402892
   10   10    2    2        0.1356779282
   10   10    2    4        0.0001116297
   10   10    2   10       -0.0001264885
   10   10    3    1       -0.0006536638
   10   10    3    3        0.1181865366
   10   10    3    7       -0.0001452669
   10   10    4    2        0.0001116297
   10   10    4    4        0.1122609259
   10   10    4   10       -0.0101669973
   10   10    5    5        0.0981643446
   10   10    6    6        0.0981643446
   10   10    7    1       -0.0003402892
   10   10    7    3       -0.0001452669
   10   10    7    7        0.1081453564
   10   10    8    8        0.0942823843
   10   10    9    9        0.0942823843
   10   10   10    2       -0.0001264885
   10   10   10    4       -0.0101669973
   10   10   10   10        0.1033567555
 fcidump
      0.9040674122     1   1   1   1
      0.7320968718     2   1   2   1
      0.9041296579     2   2   1   1
      0.9041690879     2   2   2   2
     -0.0592145591     3   1   1   1
     -0.0592205292     3   1   2   2
      0.0052699998     3   1   3   1
     -0.0603961089     3   2   2   1
      0.0052756743     3   2   3   2
      0.2575625958     3   3   1   1
      0.2575640469     3   3   2   2
     -0.0010637148     3   3   3   1
      0.2188192832     3   3   3   3
      0.0356050341     4   1   2   1
     -0.0042490436     4   1   3   2
      0.0032954458     4   1   4   1
      0.0366341596     4   2   1   1
      0.0366317849     4   2   2   2
     -0.0042357907     4   2   3   1
      0.0022622350     4   2   3   3
      0.0033074380     4   2   4   2
     -0.0473541540     4   3   2   1
      0.0014286111     4   3   3   2
     -0.0003459991     4   3   4   1
      0.0210581179     4   3   4   3
      0.1642951785     4   4   1   1
      0.1642933433     4   4   2   2
     -0.0008638311     4   4   3   1
      0.1405549977     4   4   3   3
     -0.0000236961     4   4   4   2
      0.1334405124     4   4   4   4
      0.0003974865     5   1   5   1
      0.0003813123     5   2   5   2
      0.0010278719     5   3   5   1
      0.0237246172     5   3   5   3
     -0.0004658014     5   4   5   2
      0.0078875032     5   4   5   4
      0.1490109481     5   5   1   1
      0.1490124209     5   5   2   2
      0.0001544381     5   5   3   1
      0.1444787911     5   5   3   3
      0.0002362124     5   5   4   2
      0.1137023350     5   5   4   4
      0.1276193857     5   5   5   5
      0.0003974865     6   1   6   1
      0.0003813123     6   2   6   2
      0.0010278719     6   3   6   1
      0.0237246172     6   3   6   3
     -0.0004658014     6   4   6   2
      0.0078875032     6   4   6   4
      0.0065822985     6   5   6   5
      0.1490109481     6   6   1   1
      0.1490124209     6   6   2   2
      0.0001544381     6   6   3   1
      0.1444787911     6   6   3   3
      0.0002362124     6   6   4   2
      0.1137023350     6   6   4   4
      0.1144547888     6   6   5   5
      0.1276193857     6   6   6   6
     -0.0050643191     7   1   1   1
     -0.0050594342     7   1   2   2
      0.0009990066     7   1   3   1
      0.0015970935     7   1   3   3
     -0.0002239247     7   1   4   2
     -0.0006192340     7   1   4   4
      0.0003162086     7   1   5   5
      0.0003162086     7   1   6   6
      0.0006428349     7   1   7   1
     -0.0067102495     7   2   2   1
      0.0009725303     7   2   3   2
     -0.0002450307     7   2   4   1
      0.0008060992     7   2   4   3
      0.0006031293     7   2   7   2
      0.0269380053     7   3   1   1
      0.0269333395     7   3   2   2
      0.0004467791     7   3   3   1
      0.0238062605     7   3   3   3
      0.0008309304     7   3   4   2
     -0.0011826702     7   3   4   4
      0.0092788698     7   3   5   5
      0.0092788698     7   3   6   6
      0.0011330460     7   3   7   1
      0.0175573587     7   3   7   3
      0.0323571191     7   4   2   1
     -0.0005929594     7   4   3   2
     -0.0005652246     7   4   4   1
     -0.0231410618     7   4   4   3
     -0.0008690413     7   4   7   2
      0.0418566816     7   4   7   4
      0.0000410750     7   5   5   1
      0.0000910852     7   5   5   3
      0.0036582452     7   5   7   5
      0.0000410750     7   6   6   1
      0.0000910852     7   6   6   3
      0.0036582452     7   6   7   6
      0.1395429524     7   7   1   1
      0.1395425019     7   7   2   2
     -0.0001005648     7   7   3   1
      0.1276683922     7   7   3   3
      0.0000792867     7   7   4   2
      0.1234058335     7   7   4   4
      0.1042302740     7   7   5   5
      0.1042302740     7   7   6   6
     -0.0000285060     7   7   7   1
      0.0002827245     7   7   7   3
      0.1210061840     7   7   7   7
      0.0002690689     8   1   5   2
     -0.0002935529     8   1   5   4
      0.0000042367     8   1   6   2
     -0.0000046223     8   1   6   4
      0.0001781536     8   1   8   1
      0.0002778402     8   2   5   1
      0.0005975190     8   2   5   3
      0.0000043749     8   2   6   1
      0.0000094085     8   2   6   3
      0.0000158167     8   2   7   5
      0.0000002490     8   2   7   6
      0.0001830586     8   2   8   2
      0.0004262207     8   3   5   2
     -0.0052102121     8   3   5   4
      0.0000067112     8   3   6   2
     -0.0000820397     8   3   6   4
      0.0002870654     8   3   8   1
      0.0044799300     8   3   8   3
     -0.0005128495     8   4   5   1
     -0.0111333751     8   4   5   3
     -0.0000080753     8   4   6   1
     -0.0001753055     8   4   6   3
      0.0047089647     8   4   7   5
      0.0000741471     8   4   7   6
     -0.0003259576     8   4   8   2
      0.0147233096     8   4   8   4
      0.0248821079     8   5   2   1
     -0.0003012095     8   5   3   2
     -0.0001829464     8   5   4   1
     -0.0157378452     8   5   4   3
     -0.0003432280     8   5   7   2
      0.0222120125     8   5   7   4
      0.0210822896     8   5   8   5
      0.0003917922     8   6   2   1
     -0.0000047428     8   6   3   2
     -0.0000028807     8   6   4   1
     -0.0002478072     8   6   4   3
     -0.0000054044     8   6   7   2
      0.0003497490     8   6   7   4
      0.0002876433     8   6   8   5
      0.0028190425     8   6   8   6
     -0.0001284415     8   7   5   2
      0.0066852749     8   7   5   4
     -0.0000020224     8   7   6   2
      0.0001052659     8   7   6   4
     -0.0000859935     8   7   8   1
     -0.0039053382     8   7   8   3
      0.0085883359     8   7   8   7
      0.1176215194     8   8   1   1
      0.1176214098     8   8   2   2
     -0.0000826850     8   8   3   1
      0.1134437006     8   8   3   3
     -0.0000019173     8   8   4   2
      0.1069386089     8   8   4   4
      0.1077541369     8   8   5   5
      0.0001438087     8   8   6   5
      0.0986233361     8   8   6   6
     -0.0000549811     8   8   7   1
      0.0004454091     8   8   7   3
      0.1013184709     8   8   7   7
      0.1042628231     8   8   8   8
     -0.0000042367     9   1   5   2
      0.0000046223     9   1   5   4
      0.0002690689     9   1   6   2
     -0.0002935529     9   1   6   4
      0.0001781536     9   1   9   1
     -0.0000043749     9   2   5   1
     -0.0000094085     9   2   5   3
      0.0002778402     9   2   6   1
      0.0005975190     9   2   6   3
     -0.0000002490     9   2   7   5
      0.0000158167     9   2   7   6
      0.0001830586     9   2   9   2
     -0.0000067112     9   3   5   2
      0.0000820397     9   3   5   4
      0.0004262207     9   3   6   2
     -0.0052102121     9   3   6   4
      0.0002870654     9   3   9   1
      0.0044799300     9   3   9   3
      0.0000080753     9   4   5   1
      0.0001753055     9   4   5   3
     -0.0005128495     9   4   6   1
     -0.0111333751     9   4   6   3
     -0.0000741471     9   4   7   5
      0.0047089647     9   4   7   6
     -0.0003259576     9   4   9   2
      0.0147233096     9   4   9   4
     -0.0003917922     9   5   2   1
      0.0000047428     9   5   3   2
      0.0000028807     9   5   4   1
      0.0002478072     9   5   4   3
      0.0000054044     9   5   7   2
     -0.0003497490     9   5   7   4
     -0.0002876433     9   5   8   5
      0.0028099841     9   5   8   6
      0.0028190425     9   5   9   5
      0.0248821079     9   6   2   1
     -0.0003012095     9   6   3   2
     -0.0001829464     9   6   4   1
     -0.0157378452     9   6   4   3
     -0.0003432280     9   6   7   2
      0.0222120125     9   6   7   4
      0.0154532631     9   6   8   5
      0.0002876433     9   6   8   6
     -0.0002876433     9   6   9   5
      0.0210822896     9   6   9   6
      0.0000020224     9   7   5   2
     -0.0001052659     9   7   5   4
     -0.0001284415     9   7   6   2
      0.0066852749     9   7   6   4
     -0.0000859935     9   7   9   1
     -0.0039053382     9   7   9   3
      0.0085883359     9   7   9   7
     -0.0001438087     9   8   5   5
      0.0045654004     9   8   6   5
      0.0001438087     9   8   6   6
      0.0053049787     9   8   9   8
      0.1176215194     9   9   1   1
      0.1176214098     9   9   2   2
     -0.0000826850     9   9   3   1
      0.1134437006     9   9   3   3
     -0.0000019173     9   9   4   2
      0.1069386089     9   9   4   4
      0.0986233361     9   9   5   5
     -0.0001438087     9   9   6   5
      0.1077541369     9   9   6   6
     -0.0000549811     9   9   7   1
      0.0004454091     9   9   7   3
      0.1013184709     9   9   7   7
      0.0936528657     9   9   8   8
      0.1042628231     9   9   9   9
     -0.0346390936    10   1   2   1
      0.0041682286    10   1   3   2
     -0.0031923455    10   1   4   1
      0.0004161093    10   1   4   3
      0.0003102225    10   1   7   2
      0.0004317974    10   1   7   4
      0.0001439501    10   1   8   5
      0.0000022666    10   1   8   6
     -0.0000022666    10   1   9   5
      0.0001439501    10   1   9   6
      0.0030997087    10   1  10   1
     -0.0354057871    10   2   1   1
     -0.0354044714    10   2   2   2
      0.0041577771    10   2   3   1
     -0.0018962219    10   2   3   3
     -0.0032021482    10   2   4   2
     -0.0000164167    10   2   4   4
     -0.0001509916    10   2   5   5
     -0.0001509916    10   2   6   6
      0.0002934582    10   2   7   1
     -0.0006606088    10   2   7   3
     -0.0000607755    10   2   7   7
      0.0000215546    10   2   8   8
      0.0000215546    10   2   9   9
      0.0031074277    10   2  10   2
      0.0399704982    10   3   2   1
     -0.0012527648    10   3   3   2
      0.0005176610    10   3   4   1
     -0.0135158893    10   3   4   3
     -0.0005393735    10   3   7   2
      0.0121344986    10   3   7   4
      0.0094316583    10   3   8   5
      0.0001485103    10   3   8   6
     -0.0001485103    10   3   9   5
      0.0094316583    10   3   9   6
     -0.0005091075    10   3  10   1
      0.0119226247    10   3  10   3
     -0.0560006664    10   4   1   1
     -0.0560000267    10   4   2   2
      0.0006466768    10   4   3   1
     -0.0387878006    10   4   3   3
     -0.0001426932    10   4   4   2
     -0.0212756955    10   4   4   4
     -0.0210837709    10   4   5   5
     -0.0210837709    10   4   6   6
      0.0003011808    10   4   7   1
     -0.0036292718    10   4   7   3
     -0.0109514712    10   4   7   7
     -0.0113168475    10   4   8   8
     -0.0113168475    10   4   9   9
      0.0001549229    10   4  10   2
      0.0181137815    10   4  10   4
      0.0003739957    10   5   5   2
     -0.0027866765    10   5   5   4
      0.0002359483    10   5   8   1
      0.0023277622    10   5   8   3
     -0.0000491805    10   5   8   7
     -0.0000037152    10   5   9   1
     -0.0000366528    10   5   9   3
      0.0000007744    10   5   9   7
      0.0030764560    10   5  10   5
      0.0003739957    10   6   6   2
     -0.0027866765    10   6   6   4
      0.0000037152    10   6   8   1
      0.0000366528    10   6   8   3
     -0.0000007744    10   6   8   7
      0.0002359483    10   6   9   1
      0.0023277622    10   6   9   3
     -0.0000491805    10   6   9   7
      0.0030764560    10   6  10   6
      0.0001082300    10   7   2   1
      0.0000626668    10   7   3   2
      0.0001298802    10   7   4   1
     -0.0040239832    10   7   4   3
      0.0001821458    10   7   7   2
      0.0140997477    10   7   7   4
      0.0073320471    10   7   8   5
      0.0001154500    10   7   8   6
     -0.0001154500    10   7   9   5
      0.0073320471    10   7   9   6
     -0.0000998266    10   7  10   1
      0.0000001077    10   7  10   3
      0.0143501647    10   7  10   7
      0.0002621676    10   8   5   1
      0.0026846558    10   8   5   3
      0.0000041281    10   8   6   1
      0.0000422724    10   8   6   3
      0.0016430435    10   8   7   5
      0.0000258713    10   8   7   6
      0.0001663735    10   8   8   2
      0.0011018770    10   8   8   4
      0.0042883224    10   8  10   8
     -0.0000041281    10   9   5   1
     -0.0000422724    10   9   5   3
      0.0002621676    10   9   6   1
      0.0026846558    10   9   6   3
     -0.0000258713    10   9   7   5
      0.0016430435    10   9   7   6
      0.0001663735    10   9   9   2
      0.0011018770    10   9   9   4
      0.0042883224    10   9  10   9
      0.1356785618    10  10   1   1
      0.1356779282    10  10   2   2
     -0.0006536638    10  10   3   1
      0.1181865366    10  10   3   3
      0.0001116297    10  10   4   2
      0.1122609259    10  10   4   4
      0.0981643446    10  10   5   5
      0.0981643446    10  10   6   6
     -0.0003402892    10  10   7   1
     -0.0001452669    10  10   7   3
      0.1081453564    10  10   7   7
      0.0942823843    10  10   8   8
      0.0942823843    10  10   9   9
     -0.0001264885    10  10  10   2
     -0.0101669973    10  10  10   4
      0.1033567555    10  10  10  10
     -4.9576108041     1   1   0   0
     -4.9576740767     2   2   0   0
      0.1187044615     3   1   0   0
     -1.4143681787     3   3   0   0
     -0.0748867710     4   2   0   0
     -0.9092788608     4   4   0   0
     -0.8371997326     5   5   0   0
     -0.8371997326     6   6   0   0
      0.0054182607     7   1   0   0
     -0.1344990414     7   3   0   0
     -0.7622653481     7   7   0   0
     -0.6388552501     8   8   0   0
     -0.6388552501     9   9   0   0
      0.0717045494    10   2   0   0
      0.2813251707    10   4   0   0
     -0.6981897442    10  10   0   0

 Parallel integral file used       9 records with       0 large values


 Task  times  cpu:      744.2s     wall:      748.5s


                                NWChem Input Module
                                -------------------


 Summary of allocated global arrays
-----------------------------------
  No active global arrays



                         GA Statistics for process    0
                         ------------------------------

       create   destroy   get      put      acc     scatter   gather  read&inc
calls: 2041     2041     3.19e+06 1.79e+04 1.28e+05    0        0     1.71e+05 
number of processes/call 1.00e+00 1.00e+00 1.00e+00 0.00e+00 0.00e+00
bytes total:             1.24e+10 9.88e+07 2.18e+08 0.00e+00 0.00e+00 1.37e+06
bytes remote:            0.00e+00 0.00e+00 0.00e+00 0.00e+00 0.00e+00 0.00e+00
Max memory consumed for GA by this process: 73662736 bytes

MA_summarize_allocated_blocks: starting scan ...
MA_summarize_allocated_blocks: scan completed: 0 heap blocks, 0 stack blocks
MA usage statistics:

	allocation statistics:
					      heap	     stack
					      ----	     -----
	current number of blocks	         0	         0
	maximum number of blocks	        17	        40
	current total bytes		         0	         0
	maximum total bytes		  28329768	8298725272
	maximum total K-bytes		     28330	   8298726
	maximum total M-bytes		        29	      8299


                                     CITATION
                                     --------
                Please cite the following reference when publishing
                           results obtained with NWChem:

                 M. Valiev, E.J. Bylaska, N. Govind, K. Kowalski,
              T.P. Straatsma, H.J.J. van Dam, D. Wang, J. Nieplocha,
                        E. Apra, T.L. Windus, W.A. de Jong
                 "NWChem: a comprehensive and scalable open-source
                  solution for large scale molecular simulations"
                      Comput. Phys. Commun. 181, 1477 (2010)
                           doi:10.1016/j.cpc.2010.04.018

                                      AUTHORS
                                      -------
          E. Apra, E. J. Bylaska, W. A. de Jong, N. Govind, K. Kowalski,
       T. P. Straatsma, M. Valiev, H. J. J. van Dam, D. Wang, T. L. Windus,
        J. Hammond, J. Autschbach, K. Bhaskaran-Nair, J. Brabec, K. Lopata,
    S. A. Fischer, S. Krishnamoorthy, M. Jacquelin, W. Ma, M. Klemm, O. Villa,
      Y. Chen, V. Anisimov, F. Aquino, S. Hirata, M. T. Hackler, V. Konjkov,
            D. Mejia-Rodriguez, T. Risthaus, M. Malagoli, A. Marenich,
   A. Otero-de-la-Roza, J. Mullin, P. Nichols, R. Peverati, J. Pittner, Y. Zhao,
        P.-D. Fan, A. Fonari, M. J. Williamson, R. J. Harrison, J. R. Rehr,
      M. Dupuis, D. Silverstein, D. M. A. Smith, J. Nieplocha, V. Tipparaju,
    M. Krishnan, B. E. Van Kuiken, A. Vazquez-Mayagoitia, L. Jensen, M. Swart,
      Q. Wu, T. Van Voorhis, A. A. Auer, M. Nooijen, L. D. Crosby, E. Brown,
      G. Cisneros, G. I. Fann, H. Fruchtl, J. Garza, K. Hirao, R. A. Kendall,
      J. A. Nichols, K. Tsemekhman, K. Wolinski, J. Anchell, D. E. Bernholdt,
      P. Borowski, T. Clark, D. Clerc, H. Dachsel, M. J. O. Deegan, K. Dyall,
    D. Elwood, E. Glendening, M. Gutowski, A. C. Hess, J. Jaffe, B. G. Johnson,
     J. Ju, R. Kobayashi, R. Kutteh, Z. Lin, R. Littlefield, X. Long, B. Meng,
      T. Nakajima, S. Niu, L. Pollack, M. Rosing, K. Glaesemann, G. Sandrone,
      M. Stave, H. Taylor, G. Thomas, J. H. van Lenthe, A. T. Wong, Z. Zhang.

 Total times  cpu:      744.2s     wall:      748.6s
