 argument  1 = Li2-10_ORBITALS-ccpVTZ-2_4057.nw
  NWChem w/ OpenMP: maximum threads =    1



============================== echo of input deck ==============================
title "Li2-REMOVE"
echo
start Li2-REMOVE

memory total 24 gb

geometry  units angstrom
symmetry c1
Li  0    0    0
Li  0    0    2.4057
end

basis spherical
   * library cc-pvtz
end

scf
thresh 1.0e-10
tol2e 1.0e-10
rhf
singlet
maxiter 200
end

tce
   ccsd
   maxiter 200
   thresh 1.e-6
   2eorb
   2emet 13
   tilesize 5
   freeze virtual 50
end

#set tce:qducc T
#set tce:nactv 7
set tce:printtol 0.001

task tce energy

================================================================================


                                         
                                         


              Northwest Computational Chemistry Package (NWChem) 6.8
              ------------------------------------------------------


                    Environmental Molecular Sciences Laboratory
                       Pacific Northwest National Laboratory
                                Richland, WA 99352

                              Copyright (c) 1994-2018
                       Pacific Northwest National Laboratory
                            Battelle Memorial Institute

             NWChem is an open-source computational chemistry package
                        distributed under the terms of the
                      Educational Community License (ECL) 2.0
             A copy of the license is included with this distribution
                              in the LICENSE.TXT file

                                  ACKNOWLEDGMENT
                                  --------------

            This software and its documentation were developed at the
            EMSL at Pacific Northwest National Laboratory, a multiprogram
            national laboratory, operated for the U.S. Department of Energy
            by Battelle under Contract Number DE-AC05-76RL01830. Support
            for this work was provided by the Department of Energy Office
            of Biological and Environmental Research, Office of Basic
            Energy Sciences, and the Office of Advanced Scientific Computing.


           Job information
           ---------------

    hostname        = WE35263ubuntu
    program         = /home/baum612/code/NWChem/nwchem/bin/LINUX64/nwchem
    date            = Wed Apr 10 15:43:46 2019

    compiled        = Thu_Apr_04_14:53:19_2019
    source          = /home/baum612/code/NWChem/nwchem
    nwchem branch   = Development
    nwchem revision = nwchem_on_git-845-ga8f432451
    ga revision     = 5.6.5
    use scalapack   = F
    input           = Li2-10_ORBITALS-ccpVTZ-2_4057.nw
    prefix          = Li2-REMOVE.
    data base       = ./Li2-REMOVE.db
    status          = startup
    nproc           =        1
    time left       =     -1s



           Memory information
           ------------------

    heap     =  805306366 doubles =   6144.0 Mbytes
    stack    =  805306363 doubles =   6144.0 Mbytes
    global   = 1610612736 doubles =  12288.0 Mbytes (distinct from heap & stack)
    total    = 3221225465 doubles =  24576.0 Mbytes
    verify   = yes
    hardfail = no 


           Directory information
           ---------------------

  0 permanent = .
  0 scratch   = .




                                NWChem Input Module
                                -------------------


                                    Li2-REMOVE
                                    ----------

 Scaling coordinates for geometry "geometry" by  1.889725989
 (inverse scale =  0.529177249)

 Turning off AUTOSYM since
 SYMMETRY directive was detected!


          ------
          auto-z
          ------
  no constraints, skipping    0.0000000000000000     
  no constraints, skipping    0.0000000000000000     


                             Geometry "geometry" -> ""
                             -------------------------

 Output coordinates in angstroms (scale by  1.889725989 to convert to a.u.)

  No.       Tag          Charge          X              Y              Z
 ---- ---------------- ---------- -------------- -------------- --------------
    1 Li                   3.0000     0.00000000     0.00000000    -1.20285000
    2 Li                   3.0000     0.00000000     0.00000000     1.20285000

      Atomic Mass 
      ----------- 

      Li                 7.016000


 Effective nuclear repulsion energy (a.u.)       1.9797128657

            Nuclear Dipole moment (a.u.) 
            ----------------------------
        X                 Y               Z
 ---------------- ---------------- ----------------
     0.0000000000     0.0000000000     0.0000000000



                                Z-matrix (autoz)
                                -------- 

 Units are Angstrom for bonds and degrees for angles

      Type          Name      I     J     K     L     M      Value
      ----------- --------  ----- ----- ----- ----- ----- ----------
    1 Stretch                  1     2                       2.40570


            XYZ format geometry
            -------------------
     2
 geometry
 Li                    0.00000000     0.00000000    -1.20285000
 Li                    0.00000000     0.00000000     1.20285000

 ==============================================================================
                                internuclear distances
 ------------------------------------------------------------------------------
       center one      |      center two      | atomic units |  angstroms
 ------------------------------------------------------------------------------
    2 Li               |   1 Li               |     4.54611  |     2.40570
 ------------------------------------------------------------------------------
                         number of included internuclear distances:          1
 ==============================================================================





 Summary of "ao basis" -> "" (spherical)
 ------------------------------------------------------------------------------
       Tag                 Description            Shells   Functions and Types
 ---------------- ------------------------------  ------  ---------------------
 *                          cc-pvtz                   on all atoms 


                      Basis "ao basis" -> "ao basis" (spherical)
                      -----
  Li (Lithium)
  ------------
            Exponent  Coefficients 
       -------------- ---------------------------------------------------------
  1 S  5.98800000E+03  0.000133
  1 S  8.98900000E+02  0.001025
  1 S  2.05900000E+02  0.005272
  1 S  5.92400000E+01  0.020929
  1 S  1.98700000E+01  0.066340
  1 S  7.40600000E+00  0.165775
  1 S  2.93000000E+00  0.315038
  1 S  1.18900000E+00  0.393523
  1 S  4.79800000E-01  0.190870

  2 S  5.98800000E+03 -0.000021
  2 S  8.98900000E+02 -0.000161
  2 S  2.05900000E+02 -0.000820
  2 S  5.92400000E+01 -0.003326
  2 S  1.98700000E+01 -0.010519
  2 S  7.40600000E+00 -0.028097
  2 S  2.93000000E+00 -0.055936
  2 S  1.18900000E+00 -0.099237
  2 S  4.79800000E-01 -0.112189

  3 S  7.50900000E-02  1.000000

  4 S  2.83200000E-02  1.000000

  5 P  3.26600000E+00  0.008630
  5 P  6.51100000E-01  0.047538
  5 P  1.69600000E-01  0.209772

  6 P  5.57800000E-02  1.000000

  7 P  2.05000000E-02  1.000000

  8 D  1.87400000E-01  1.000000

  9 D  8.01000000E-02  1.000000

 10 F  1.82900000E-01  1.000000



 Summary of "ao basis" -> "ao basis" (spherical)
 ------------------------------------------------------------------------------
       Tag                 Description            Shells   Functions and Types
 ---------------- ------------------------------  ------  ---------------------
 Li                         cc-pvtz                 10       30   4s3p2d1f


                                 NWChem SCF Module
                                 -----------------


                                    Li2-REMOVE



  ao basis        = "ao basis"
  functions       =    60
  atoms           =     2
  closed shells   =     3
  open shells     =     0
  charge          =   0.00
  wavefunction    = RHF 
  input vectors   = atomic
  output vectors  = ./Li2-REMOVE.movecs
  use symmetry    = F
  symmetry adapt  = F


 Summary of "ao basis" -> "ao basis" (spherical)
 ------------------------------------------------------------------------------
       Tag                 Description            Shells   Functions and Types
 ---------------- ------------------------------  ------  ---------------------
 Li                         cc-pvtz                 10       30   4s3p2d1f



 Forming initial guess at       0.1s


      Superposition of Atomic Density Guess
      -------------------------------------

 Sum of atomic energies:         -14.86535760

      Non-variational initial energy
      ------------------------------

 Total energy =     -14.823512
 1-e energy   =     -23.308522
 2-e energy   =       6.505297
 HOMO         =      -0.172881
 LUMO         =      -0.015130


 Starting SCF solution at       0.2s



 ----------------------------------------------
         Quadratically convergent ROHF

 Convergence threshold     :          1.000E-10
 Maximum no. of iterations :          200
 Final Fock-matrix accuracy:          1.000E-10
 ----------------------------------------------


 Integral file          = ./Li2-REMOVE.aoints.0
 Record size in doubles =    65536    No. of integs per rec  =    43688
 Max. records in memory =       54    Max. records in file   =  1545092
 No. of bits per label  =        8    No. of bits per value  =       64


 #quartets = 2.216D+04 #integrals = 3.711D+05 #direct =  0.0% #cached =100.0%


              iter       energy          gnorm     gmax       time
             ----- ------------------- --------- --------- --------
                 1      -14.8650170314  7.46D-02  3.67D-02      0.4
                 2      -14.8667298365  2.79D-03  1.77D-03      0.4
                 3      -14.8667339476  4.65D-06  3.14D-06      0.4
                 4      -14.8667339476  1.28D-11  7.76D-12      0.5


       Final RHF  results 
       ------------------ 

         Total SCF energy =    -14.866733947642
      One-electron energy =    -23.516551227395
      Two-electron energy =      6.670104414060
 Nuclear repulsion energy =      1.979712865693

        Time for solution =      0.3s


             Final eigenvalues
             -----------------

              1      
    1   -2.4511
    2   -2.4501
    3   -0.1870
    4    0.0091
    5    0.0263
    6    0.0263
    7    0.0397
    8    0.0570
    9    0.0570
   10    0.0666
   11    0.1091
   12    0.1132
   13    0.1132

                       ROHF Final Molecular Orbital Analysis
                       -------------------------------------

 Vector    2  Occ=2.000000D+00  E=-2.450076D+00
              MO Center=  1.2D-16,  4.7D-19,  4.0D-12, r^2= 1.6D+00
   Bfn.  Coefficient  Atom+Function         Bfn.  Coefficient  Atom+Function  
  ----- ------------  ---------------      ----- ------------  ---------------
     1      0.704450  1 Li s                 31     -0.704450  2 Li s          

 Vector    3  Occ=2.000000D+00  E=-1.870318D-01
              MO Center= -3.8D-15,  1.5D-15,  1.7D-14, r^2= 5.0D+00
   Bfn.  Coefficient  Atom+Function         Bfn.  Coefficient  Atom+Function  
  ----- ------------  ---------------      ----- ------------  ---------------
     3      0.298907  1 Li s                 33      0.298907  2 Li s          
     4      0.270838  1 Li s                 34      0.270838  2 Li s          
     2      0.199621  1 Li s                 32      0.199621  2 Li s          

 Vector    4  Occ=0.000000D+00  E= 9.074211D-03
              MO Center=  4.5D-15, -1.8D-15, -9.3D-13, r^2= 2.0D+01
   Bfn.  Coefficient  Atom+Function         Bfn.  Coefficient  Atom+Function  
  ----- ------------  ---------------      ----- ------------  ---------------
     4      1.396019  1 Li s                 34     -1.396019  2 Li s          
    13      0.885818  1 Li pz                43      0.885818  2 Li pz         
    10      0.312860  1 Li pz                40      0.312860  2 Li pz         

 Vector    5  Occ=0.000000D+00  E= 2.632139D-02
              MO Center=  1.5D-15,  8.3D-16, -1.4D-13, r^2= 1.6D+01
   Bfn.  Coefficient  Atom+Function         Bfn.  Coefficient  Atom+Function  
  ----- ------------  ---------------      ----- ------------  ---------------
    12      0.386731  1 Li py                42      0.386731  2 Li py         
    11      0.297462  1 Li px                41      0.297462  2 Li px         

 Vector    6  Occ=0.000000D+00  E= 2.632139D-02
              MO Center=  1.5D-14, -1.1D-14, -1.8D-13, r^2= 1.6D+01
   Bfn.  Coefficient  Atom+Function         Bfn.  Coefficient  Atom+Function  
  ----- ------------  ---------------      ----- ------------  ---------------
    11      0.386731  1 Li px                41      0.386731  2 Li px         
    12     -0.297462  1 Li py                42     -0.297462  2 Li py         

 Vector    7  Occ=0.000000D+00  E= 3.973048D-02
              MO Center=  4.3D-15, -3.4D-15, -1.8D-12, r^2= 2.5D+01
   Bfn.  Coefficient  Atom+Function         Bfn.  Coefficient  Atom+Function  
  ----- ------------  ---------------      ----- ------------  ---------------
    13      1.100020  1 Li pz                43     -1.100020  2 Li pz         
     4     -0.691467  1 Li s                 34     -0.691467  2 Li s          
     3      0.301233  1 Li s                 33      0.301233  2 Li s          

 Vector    8  Occ=0.000000D+00  E= 5.695648D-02
              MO Center=  1.8D-15,  1.2D-14,  1.3D-13, r^2= 2.7D+01
   Bfn.  Coefficient  Atom+Function         Bfn.  Coefficient  Atom+Function  
  ----- ------------  ---------------      ----- ------------  ---------------
    12      1.797945  1 Li py                42     -1.797945  2 Li py         
     9     -0.343031  1 Li py                39      0.343031  2 Li py         
    11      0.291369  1 Li px                41     -0.291369  2 Li px         

 Vector    9  Occ=0.000000D+00  E= 5.695648D-02
              MO Center=  1.7D-14, -2.9D-15,  1.6D-13, r^2= 2.7D+01
   Bfn.  Coefficient  Atom+Function         Bfn.  Coefficient  Atom+Function  
  ----- ------------  ---------------      ----- ------------  ---------------
    11      1.797945  1 Li px                41     -1.797945  2 Li px         
     8     -0.343031  1 Li px                38      0.343031  2 Li px         
    12     -0.291369  1 Li py                42      0.291369  2 Li py         

 Vector   10  Occ=0.000000D+00  E= 6.660660D-02
              MO Center= -1.9D-14, -9.6D-15,  2.0D-12, r^2= 3.0D+01
   Bfn.  Coefficient  Atom+Function         Bfn.  Coefficient  Atom+Function  
  ----- ------------  ---------------      ----- ------------  ---------------
     4      7.781544  1 Li s                 34     -7.781544  2 Li s          
    13      2.406495  1 Li pz                43      2.406495  2 Li pz         
    10      1.185688  1 Li pz                40      1.185688  2 Li pz         
     3      0.392859  1 Li s                 33     -0.392859  2 Li s          
    21      0.357272  1 Li d  0              51     -0.357272  2 Li d  0       

 Vector   11  Occ=0.000000D+00  E= 1.090694D-01
              MO Center= -9.5D-15,  3.3D-15,  4.5D-13, r^2= 1.7D+01
   Bfn.  Coefficient  Atom+Function         Bfn.  Coefficient  Atom+Function  
  ----- ------------  ---------------      ----- ------------  ---------------
    13      1.180580  1 Li pz                43     -1.180580  2 Li pz         
     3     -0.959518  1 Li s                 33     -0.959518  2 Li s          
     4      0.563420  1 Li s                 34      0.563420  2 Li s          
    10     -0.362906  1 Li pz                40      0.362906  2 Li pz         
    21      0.316630  1 Li d  0              51      0.316630  2 Li d  0       

 Vector   12  Occ=0.000000D+00  E= 1.131617D-01
              MO Center= -7.2D-17,  6.1D-15, -1.8D-13, r^2= 1.5D+01
   Bfn.  Coefficient  Atom+Function         Bfn.  Coefficient  Atom+Function  
  ----- ------------  ---------------      ----- ------------  ---------------
     9      0.824893  1 Li py                39      0.824893  2 Li py         
    12     -0.657588  1 Li py                42     -0.657588  2 Li py         

 Vector   13  Occ=0.000000D+00  E= 1.131617D-01
              MO Center= -1.4D-15, -9.5D-19, -1.6D-13, r^2= 1.5D+01
   Bfn.  Coefficient  Atom+Function         Bfn.  Coefficient  Atom+Function  
  ----- ------------  ---------------      ----- ------------  ---------------
     8      0.824893  1 Li px                38      0.824893  2 Li px         
    11     -0.657588  1 Li px                41     -0.657588  2 Li px         

 Vector   14  Occ=0.000000D+00  E= 1.474378D-01
              MO Center= -5.1D-15,  1.2D-15,  4.3D-12, r^2= 1.3D+01
   Bfn.  Coefficient  Atom+Function         Bfn.  Coefficient  Atom+Function  
  ----- ------------  ---------------      ----- ------------  ---------------
     3      1.520692  1 Li s                 33      1.520692  2 Li s          
     4     -1.104993  1 Li s                 34     -1.104993  2 Li s          
    10     -0.908812  1 Li pz                40      0.908812  2 Li pz         
    13      0.439649  1 Li pz                43     -0.439649  2 Li pz         
     2      0.198894  1 Li s                 21     -0.198440  1 Li d  0       

 Vector   15  Occ=0.000000D+00  E= 1.592370D-01
              MO Center=  1.0D-15,  9.7D-16, -4.2D-12, r^2= 2.0D+01
   Bfn.  Coefficient  Atom+Function         Bfn.  Coefficient  Atom+Function  
  ----- ------------  ---------------      ----- ------------  ---------------
     4     12.739030  1 Li s                 34    -12.739030  2 Li s          
    10      5.304257  1 Li pz                40      5.304257  2 Li pz         
    13      2.112958  1 Li pz                43      2.112958  2 Li pz         
     3      1.860811  1 Li s                 33     -1.860811  2 Li s          
    21      0.884972  1 Li d  0              51     -0.884972  2 Li d  0       

 Vector   16  Occ=0.000000D+00  E= 1.684320D-01
              MO Center= -6.1D-16, -1.1D-15,  1.5D-13, r^2= 1.3D+01
   Bfn.  Coefficient  Atom+Function         Bfn.  Coefficient  Atom+Function  
  ----- ------------  ---------------      ----- ------------  ---------------
     8      1.328607  1 Li px                38     -1.328607  2 Li px         
    11     -1.210546  1 Li px                41      1.210546  2 Li px         
     9      0.649333  1 Li py                39     -0.649333  2 Li py         
    12     -0.591632  1 Li py                42      0.591632  2 Li py         

 Vector   17  Occ=0.000000D+00  E= 1.684320D-01
              MO Center=  2.5D-15,  1.3D-15,  1.5D-13, r^2= 1.3D+01
   Bfn.  Coefficient  Atom+Function         Bfn.  Coefficient  Atom+Function  
  ----- ------------  ---------------      ----- ------------  ---------------
     9      1.328607  1 Li py                39     -1.328607  2 Li py         
    12     -1.210546  1 Li py                42      1.210546  2 Li py         
     8     -0.649333  1 Li px                38      0.649333  2 Li px         
    11      0.591632  1 Li px                41     -0.591632  2 Li px         

 Vector   18  Occ=0.000000D+00  E= 2.171970D-01
              MO Center= -2.5D-16,  6.2D-16, -5.6D-14, r^2= 8.0D+00
   Bfn.  Coefficient  Atom+Function         Bfn.  Coefficient  Atom+Function  
  ----- ------------  ---------------      ----- ------------  ---------------
    19      0.647964  1 Li d -2              49      0.647964  2 Li d -2       
    23      0.226131  1 Li d  2              53      0.226131  2 Li d  2       

 Vector   19  Occ=0.000000D+00  E= 2.171970D-01
              MO Center=  4.4D-16,  2.7D-16, -6.3D-14, r^2= 8.0D+00
   Bfn.  Coefficient  Atom+Function         Bfn.  Coefficient  Atom+Function  
  ----- ------------  ---------------      ----- ------------  ---------------
    23      0.647964  1 Li d  2              53      0.647964  2 Li d  2       
    19     -0.226131  1 Li d -2              49     -0.226131  2 Li d -2       

 Vector   20  Occ=0.000000D+00  E= 2.543112D-01
              MO Center=  1.2D-16, -3.9D-16, -3.7D-13, r^2= 1.3D+01
   Bfn.  Coefficient  Atom+Function         Bfn.  Coefficient  Atom+Function  
  ----- ------------  ---------------      ----- ------------  ---------------
     4      4.940217  1 Li s                 34     -4.940217  2 Li s          
    13      1.292269  1 Li pz                43      1.292269  2 Li pz         
    21      0.857062  1 Li d  0              51     -0.857062  2 Li d  0       
     3     -0.818260  1 Li s                 33      0.818260  2 Li s          
    10      0.412538  1 Li pz                40      0.412538  2 Li pz         

 Vector   21  Occ=0.000000D+00  E= 2.632004D-01
              MO Center= -6.4D-17,  1.6D-17, -4.3D-14, r^2= 9.9D+00
   Bfn.  Coefficient  Atom+Function         Bfn.  Coefficient  Atom+Function  
  ----- ------------  ---------------      ----- ------------  ---------------
    20      0.790959  1 Li d -1              50     -0.790959  2 Li d -1       
     9     -0.403513  1 Li py                39     -0.403513  2 Li py         
    22      0.198669  1 Li d  1              52     -0.198669  2 Li d  1       
    12      0.175416  1 Li py                42      0.175416  2 Li py         
    15     -0.160993  1 Li d -1              45      0.160993  2 Li d -1       

 Vector   22  Occ=0.000000D+00  E= 2.632004D-01
              MO Center=  8.8D-16, -1.2D-16, -2.8D-14, r^2= 9.9D+00
   Bfn.  Coefficient  Atom+Function         Bfn.  Coefficient  Atom+Function  
  ----- ------------  ---------------      ----- ------------  ---------------
    22      0.790959  1 Li d  1              52     -0.790959  2 Li d  1       
     8      0.403513  1 Li px                38      0.403513  2 Li px         
    20     -0.198669  1 Li d -1              50      0.198669  2 Li d -1       
    11     -0.175416  1 Li px                41     -0.175416  2 Li px         
    17     -0.160993  1 Li d  1              47      0.160993  2 Li d  1       

 Vector   23  Occ=0.000000D+00  E= 2.841871D-01
              MO Center=  2.6D-15, -1.7D-15,  5.7D-14, r^2= 9.7D+00
   Bfn.  Coefficient  Atom+Function         Bfn.  Coefficient  Atom+Function  
  ----- ------------  ---------------      ----- ------------  ---------------
    23      1.097756  1 Li d  2              53     -1.097756  2 Li d  2       
    18     -0.193763  1 Li d  2              48      0.193763  2 Li d  2       

 Vector   24  Occ=0.000000D+00  E= 2.841871D-01
              MO Center=  1.9D-15, -1.3D-15,  5.5D-14, r^2= 9.7D+00
   Bfn.  Coefficient  Atom+Function         Bfn.  Coefficient  Atom+Function  
  ----- ------------  ---------------      ----- ------------  ---------------
    19      1.097756  1 Li d -2              49     -1.097756  2 Li d -2       
    14     -0.193763  1 Li d -2              44      0.193763  2 Li d -2       

 Vector   25  Occ=0.000000D+00  E= 3.163857D-01
              MO Center= -1.1D-15,  9.0D-18,  4.9D-13, r^2= 1.1D+01
   Bfn.  Coefficient  Atom+Function         Bfn.  Coefficient  Atom+Function  
  ----- ------------  ---------------      ----- ------------  ---------------
    21     -1.356530  1 Li d  0              51     -1.356530  2 Li d  0       
     3      1.344468  1 Li s                 33      1.344468  2 Li s          
    13     -0.697674  1 Li pz                43      0.697674  2 Li pz         
     4     -0.643887  1 Li s                 34     -0.643887  2 Li s          
    10     -0.223523  1 Li pz                40      0.223523  2 Li pz         

 Vector   26  Occ=0.000000D+00  E= 3.635419D-01
              MO Center= -5.7D-15,  6.5D-17,  5.6D-14, r^2= 1.2D+01
   Bfn.  Coefficient  Atom+Function         Bfn.  Coefficient  Atom+Function  
  ----- ------------  ---------------      ----- ------------  ---------------
     8      3.340239  1 Li px                38     -3.340239  2 Li px         
    22     -2.674320  1 Li d  1              52     -2.674320  2 Li d  1       
    11     -0.368342  1 Li px                41      0.368342  2 Li px         
     9      0.229567  1 Li py                39     -0.229567  2 Li py         
    20      0.183800  1 Li d -1              50      0.183800  2 Li d -1       

 Vector   27  Occ=0.000000D+00  E= 3.635419D-01
              MO Center= -2.9D-15,  6.7D-16,  7.9D-14, r^2= 1.2D+01
   Bfn.  Coefficient  Atom+Function         Bfn.  Coefficient  Atom+Function  
  ----- ------------  ---------------      ----- ------------  ---------------
     9      3.340239  1 Li py                39     -3.340239  2 Li py         
    20      2.674320  1 Li d -1              50      2.674320  2 Li d -1       
    12     -0.368342  1 Li py                42      0.368342  2 Li py         
     8     -0.229567  1 Li px                38      0.229567  2 Li px         
    22      0.183800  1 Li d  1              52      0.183800  2 Li d  1       

 Vector   28  Occ=0.000000D+00  E= 3.937972D-01
              MO Center=  2.9D-16, -1.1D-16,  6.5D-13, r^2= 1.2D+01
   Bfn.  Coefficient  Atom+Function         Bfn.  Coefficient  Atom+Function  
  ----- ------------  ---------------      ----- ------------  ---------------
     4      9.557257  1 Li s                 34     -9.557257  2 Li s          
    10      7.312398  1 Li pz                40      7.312398  2 Li pz         
     3      6.134820  1 Li s                 33     -6.134820  2 Li s          
    21      1.991220  1 Li d  0              51     -1.991220  2 Li d  0       
    13      1.148002  1 Li pz                43      1.148002  2 Li pz         

 Vector   29  Occ=0.000000D+00  E= 4.644891D-01
              MO Center=  3.8D-16, -2.6D-15,  1.7D-13, r^2= 6.3D+00
   Bfn.  Coefficient  Atom+Function         Bfn.  Coefficient  Atom+Function  
  ----- ------------  ---------------      ----- ------------  ---------------
     6      0.893115  1 Li py                36      0.893115  2 Li py         
     9     -0.819437  1 Li py                39     -0.819437  2 Li py         
    12      0.320870  1 Li py                42      0.320870  2 Li py         
     5     -0.318170  1 Li px                35     -0.318170  2 Li px         
     8      0.291922  1 Li px                38      0.291922  2 Li px         

 Vector   30  Occ=0.000000D+00  E= 4.644891D-01
              MO Center=  2.6D-15,  7.2D-16,  2.0D-13, r^2= 6.3D+00
   Bfn.  Coefficient  Atom+Function         Bfn.  Coefficient  Atom+Function  
  ----- ------------  ---------------      ----- ------------  ---------------
     5      0.893115  1 Li px                35      0.893115  2 Li px         
     8     -0.819437  1 Li px                38     -0.819437  2 Li px         
    11      0.320870  1 Li px                41      0.320870  2 Li px         
     6      0.318170  1 Li py                36      0.318170  2 Li py         
     9     -0.291922  1 Li py                39     -0.291922  2 Li py         

 Vector   31  Occ=0.000000D+00  E= 4.712468D-01
              MO Center=  4.1D-16,  6.8D-16, -1.3D-13, r^2= 7.6D+00
   Bfn.  Coefficient  Atom+Function         Bfn.  Coefficient  Atom+Function  
  ----- ------------  ---------------      ----- ------------  ---------------
     8      1.514720  1 Li px                38     -1.514720  2 Li px         
     5     -0.860319  1 Li px                35      0.860319  2 Li px         
    11     -0.853096  1 Li px                41      0.853096  2 Li px         
    28     -0.291805  1 Li f  1              58      0.291805  2 Li f  1       
    17     -0.288891  1 Li d  1              47     -0.288891  2 Li d  1       

 Vector   32  Occ=0.000000D+00  E= 4.712468D-01
              MO Center=  3.6D-16,  5.3D-16, -2.5D-13, r^2= 7.6D+00
   Bfn.  Coefficient  Atom+Function         Bfn.  Coefficient  Atom+Function  
  ----- ------------  ---------------      ----- ------------  ---------------
     9      1.514720  1 Li py                39     -1.514720  2 Li py         
     6     -0.860319  1 Li py                36      0.860319  2 Li py         
    12     -0.853096  1 Li py                42      0.853096  2 Li py         
    26      0.291805  1 Li f -1              56     -0.291805  2 Li f -1       
    15      0.288891  1 Li d -1              45      0.288891  2 Li d -1       

 Vector   33  Occ=0.000000D+00  E= 4.960998D-01
              MO Center= -3.3D-15, -8.4D-16, -6.7D-13, r^2= 8.4D+00
   Bfn.  Coefficient  Atom+Function         Bfn.  Coefficient  Atom+Function  
  ----- ------------  ---------------      ----- ------------  ---------------
    10      1.845744  1 Li pz                40     -1.845744  2 Li pz         
     3     -1.492397  1 Li s                 33     -1.492397  2 Li s          
    21      1.228064  1 Li d  0              51      1.228064  2 Li d  0       
     7     -1.083986  1 Li pz                37      1.083986  2 Li pz         
     4      0.868308  1 Li s                 34      0.868308  2 Li s          

 Vector   34  Occ=0.000000D+00  E= 5.953164D-01
              MO Center= -7.8D-16,  1.1D-16, -7.5D-14, r^2= 6.0D+00
   Bfn.  Coefficient  Atom+Function         Bfn.  Coefficient  Atom+Function  
  ----- ------------  ---------------      ----- ------------  ---------------
     4      5.692889  1 Li s                 34     -5.692889  2 Li s          
    10      3.393329  1 Li pz                40      3.393329  2 Li pz         
     3      3.157735  1 Li s                 33     -3.157735  2 Li s          
    21      1.605607  1 Li d  0              51     -1.605607  2 Li d  0       
    13      0.950473  1 Li pz                43      0.950473  2 Li pz         


 center of mass
 --------------
 x =   0.00000000 y =   0.00000000 z =   0.00000000

 moments of inertia (a.u.)
 ------------------
          72.500364936527           0.000000000000           0.000000000000
           0.000000000000          72.500364936527           0.000000000000
           0.000000000000           0.000000000000           0.000000000000

  Mulliken analysis of the total density
  --------------------------------------

    Atom       Charge   Shell Charges
 -----------   ------   -------------------------------------------------------
    1 Li   3     3.00   1.99 -0.02  0.46  0.47  0.04  0.05  0.01  0.00  0.00  0.00
    2 Li   3     3.00   1.99 -0.02  0.46  0.47  0.04  0.05  0.01  0.00  0.00  0.00

       Multipole analysis of the density wrt the origin
       ------------------------------------------------

     L   x y z        total         open         nuclear
     -   - - -        -----         ----         -------
     0   0 0 0     -0.000000      0.000000      6.000000

     1   1 0 0      0.000000      0.000000      0.000000
     1   0 1 0     -0.000000      0.000000      0.000000
     1   0 0 1     -0.000000      0.000000      0.000000

     2   2 0 0    -12.076783      0.000000      0.000000
     2   1 1 0     -0.000000      0.000000      0.000000
     2   1 0 1      0.000000      0.000000      0.000000
     2   0 2 0    -12.076783      0.000000      0.000000
     2   0 1 1      0.000000      0.000000      0.000000
     2   0 0 2     -2.819015      0.000000     31.000726


 Parallel integral file used       9 records with       0 large values

                   NWChem Extensible Many-Electron Theory Module
                   ---------------------------------------------

              ======================================================
                   This portion of the program was automatically
                  generated by a Tensor Contraction Engine (TCE).
                  The development of this portion of the program
                 and TCE was supported by US Department of Energy,
                Office of Science, Office of Basic Energy Science.
                      TCE is a product of Battelle and PNNL.
              Please cite: S.Hirata, J.Phys.Chem.A 107, 9887 (2003).
              ======================================================

                                    Li2-REMOVE


            General Information
            -------------------
      Number of processors :     1
         Wavefunction type : Restricted Hartree-Fock
          No. of electrons :     6
           Alpha electrons :     3
            Beta electrons :     3
           No. of orbitals :   120
            Alpha orbitals :    60
             Beta orbitals :    60
        Alpha frozen cores :     0
         Beta frozen cores :     0
     Alpha frozen virtuals :    50
      Beta frozen virtuals :    50
         Spin multiplicity : singlet 
    Number of AO functions :    60
       Number of AO shells :    20
        Use of symmetry is : off
      Symmetry adaption is : off
         Schwarz screening : 0.10D-09

          Correlation Information
          -----------------------
          Calculation type : Coupled-cluster singles & doubles                           
   Perturbative correction : none                                                        
            Max iterations :      200
        Residual threshold : 0.10D-05
     T(0) DIIS level shift : 0.00D+00
     L(0) DIIS level shift : 0.00D+00
     T(1) DIIS level shift : 0.00D+00
     L(1) DIIS level shift : 0.00D+00
     T(R) DIIS level shift : 0.00D+00
     T(I) DIIS level shift : 0.00D+00
   CC-T/L Amplitude update :  5-th order DIIS
                I/O scheme : Global Array Library
        L-threshold :  0.10D-05
        EOM-threshold :  0.10D-05
 no EOMCCSD initial starts read in
 TCE RESTART OPTIONS
 READ_INT:   F
 WRITE_INT:  F
 READ_TA:    F
 WRITE_TA:   F
 READ_XA:    F
 WRITE_XA:   F
 READ_IN3:   F
 WRITE_IN3:  F
 SLICE:      F
 D4D5:       F
 quantumc:   F
 qrotation:  F
 qducc:      F
 nacto:                         0
 nrotv:                         0
 nrot:                          0

            Memory Information
            ------------------
          Available GA space size is    1610609136 doubles
          Available MA space size is    1610610004 doubles

 Maximum block size supplied by input
 Maximum block size         5 doubles

 tile_dim =      4

 Block   Spin    Irrep     Size     Offset   Alpha
 -------------------------------------------------
   1    alpha     a      3 doubles       0       1
   2    beta      a      3 doubles       3       1
   3    alpha     a      3 doubles       6       3
   4    alpha     a      4 doubles       9       4
   5    beta      a      3 doubles      13       3
   6    beta      a      4 doubles      16       4

 Global array virtual files algorithm will be used

 Parallel file system coherency ......... OK

 Integral file          = ./Li2-REMOVE.aoints.0
 Record size in doubles =    65536    No. of integs per rec  =    43688
 Max. records in memory =       54    Max. records in file   =  1545092
 No. of bits per label  =        8    No. of bits per value  =       64


 #quartets = 2.216D+04 #integrals = 3.711D+05 #direct =  0.0% #cached =100.0%


 Fock matrix recomputed
 1-e file size   =              100
 1-e file name   = ./Li2-REMOVE.f1
 Cpu & wall time / sec            0.2            0.3
 4-electron integrals stored in orbital form

 v2    file size   =             2638
 4-index algorithm nr.  13 is used
 imaxsize =       30
 imaxsize ichop =        0
 Cpu & wall time / sec            1.8            1.8
 T1-number-of-tasks                    2

 t1 file size   =               21
 t1 file name   = ./Li2-REMOVE.t1
 t1 file handle =       -998
 T2-number-of-boxes                    7

 t2 file size   =              774
 t2 file name   = ./Li2-REMOVE.t2
 t2 file handle =       -996

 CCSD iterations
 -----------------------------------------------------------------
 Iter          Residuum       Correlation     Cpu    Wall    V2*C2
 -----------------------------------------------------------------
    1   0.0180816395520  -0.0041276714194     0.0     0.0     0.0
    2   0.0080649041013  -0.0058069785956     0.0     0.0     0.0
    3   0.0037971686419  -0.0065317460154     0.0     0.0     0.0
    4   0.0018667368747  -0.0068608276296     0.0     0.0     0.0
    5   0.0009610387214  -0.0070152623796     0.0     0.0     0.0
 MICROCYCLE DIIS UPDATE:                    5                    5
    6   0.0000568391511  -0.0071668647133     0.0     0.0     0.0
    7   0.0000187227866  -0.0071663488973     0.0     0.0     0.0
    8   0.0000072470263  -0.0071664363716     0.0     0.0     0.0
    9   0.0000031849599  -0.0071664900118     0.0     0.0     0.0
   10   0.0000015201080  -0.0071665317861     0.0     0.0     0.0
 MICROCYCLE DIIS UPDATE:                   10                    5
   11   0.0000004036780  -0.0071665864539     0.0     0.0     0.0
 -----------------------------------------------------------------
 Iterations converged
 CCSD correlation energy / hartree =        -0.007166586453929
 CCSD total energy / hartree       =       -14.873900534095831

 Singles contributions
     7a   (alpha) ---     3a   (alpha)       -0.0246640903

 Doubles contributions
     4a   (alpha)     4a   (beta ) ---     3a   (alpha)     3a   (beta )       -0.0798729690
     5a   (alpha)     5a   (beta ) ---     3a   (alpha)     3a   (beta )       -0.0834729117
     6a   (alpha)     6a   (beta ) ---     3a   (alpha)     3a   (beta )       -0.0834729117
     4a   (alpha)    10a   (beta ) ---     3a   (alpha)     3a   (beta )        0.0586364568
    10a   (alpha)     4a   (beta ) ---     3a   (alpha)     3a   (beta )        0.0586364568
     7a   (alpha)     7a   (beta ) ---     3a   (alpha)     3a   (beta )       -0.0286730723
    10a   (alpha)    10a   (beta ) ---     3a   (alpha)     3a   (beta )       -0.0409507285

 Parallel integral file used       9 records with       0 large values


 Task  times  cpu:        2.7s     wall:        2.8s


                                NWChem Input Module
                                -------------------


 Summary of allocated global arrays
-----------------------------------
  No active global arrays



                         GA Statistics for process    0
                         ------------------------------

       create   destroy   get      put      acc     scatter   gather  read&inc
calls: 1510     1510     1.75e+04 3191     5952        0        0     6063     
number of processes/call 1.00e+00 1.00e+00 1.00e+00 0.00e+00 0.00e+00
bytes total:             3.71e+08 6.37e+07 4.19e+06 0.00e+00 0.00e+00 4.85e+04
bytes remote:            0.00e+00 0.00e+00 0.00e+00 0.00e+00 0.00e+00 0.00e+00
Max memory consumed for GA by this process: 58413920 bytes

MA_summarize_allocated_blocks: starting scan ...
MA_summarize_allocated_blocks: scan completed: 0 heap blocks, 0 stack blocks
MA usage statistics:

	allocation statistics:
					      heap	     stack
					      ----	     -----
	current number of blocks	         0	         0
	maximum number of blocks	        17	        33
	current total bytes		         0	         0
	maximum total bytes		  28329736	  39282552
	maximum total K-bytes		     28330	     39283
	maximum total M-bytes		        29	        40


                                     CITATION
                                     --------
                Please cite the following reference when publishing
                           results obtained with NWChem:

                 M. Valiev, E.J. Bylaska, N. Govind, K. Kowalski,
              T.P. Straatsma, H.J.J. van Dam, D. Wang, J. Nieplocha,
                        E. Apra, T.L. Windus, W.A. de Jong
                 "NWChem: a comprehensive and scalable open-source
                  solution for large scale molecular simulations"
                      Comput. Phys. Commun. 181, 1477 (2010)
                           doi:10.1016/j.cpc.2010.04.018

                                      AUTHORS
                                      -------
          E. Apra, E. J. Bylaska, W. A. de Jong, N. Govind, K. Kowalski,
       T. P. Straatsma, M. Valiev, H. J. J. van Dam, D. Wang, T. L. Windus,
        J. Hammond, J. Autschbach, K. Bhaskaran-Nair, J. Brabec, K. Lopata,
    S. A. Fischer, S. Krishnamoorthy, M. Jacquelin, W. Ma, M. Klemm, O. Villa,
      Y. Chen, V. Anisimov, F. Aquino, S. Hirata, M. T. Hackler, V. Konjkov,
            D. Mejia-Rodriguez, T. Risthaus, M. Malagoli, A. Marenich,
   A. Otero-de-la-Roza, J. Mullin, P. Nichols, R. Peverati, J. Pittner, Y. Zhao,
        P.-D. Fan, A. Fonari, M. J. Williamson, R. J. Harrison, J. R. Rehr,
      M. Dupuis, D. Silverstein, D. M. A. Smith, J. Nieplocha, V. Tipparaju,
    M. Krishnan, B. E. Van Kuiken, A. Vazquez-Mayagoitia, L. Jensen, M. Swart,
      Q. Wu, T. Van Voorhis, A. A. Auer, M. Nooijen, L. D. Crosby, E. Brown,
      G. Cisneros, G. I. Fann, H. Fruchtl, J. Garza, K. Hirao, R. A. Kendall,
      J. A. Nichols, K. Tsemekhman, K. Wolinski, J. Anchell, D. E. Bernholdt,
      P. Borowski, T. Clark, D. Clerc, H. Dachsel, M. J. O. Deegan, K. Dyall,
    D. Elwood, E. Glendening, M. Gutowski, A. C. Hess, J. Jaffe, B. G. Johnson,
     J. Ju, R. Kobayashi, R. Kutteh, Z. Lin, R. Littlefield, X. Long, B. Meng,
      T. Nakajima, S. Niu, L. Pollack, M. Rosing, K. Glaesemann, G. Sandrone,
      M. Stave, H. Taylor, G. Thomas, J. H. van Lenthe, A. T. Wong, Z. Zhang.

 Total times  cpu:        2.7s     wall:        2.8s
