 argument  1 = Li2-10_ORBITALS-ccpVTZ-4_67775.nw
  NWChem w/ OpenMP: maximum threads =    1



============================== echo of input deck ==============================
title "Li2-REMOVE"
echo
start Li2-REMOVE

memory total 24 gb

geometry  units angstrom
symmetry c1
Li  0    0    0
Li  0    0    4.67775
end

basis spherical
   * library cc-pvtz
end

scf
thresh 1.0e-10
tol2e 1.0e-10
rhf
singlet
maxiter 200
end

tce
   ccsd
   maxiter 200
   thresh 1.e-6
   2eorb
   2emet 13
   tilesize 5
   freeze virtual 50
end

#set tce:qducc T
#set tce:nactv 7
set tce:printtol 0.001

task tce energy

================================================================================


                                         
                                         


              Northwest Computational Chemistry Package (NWChem) 6.8
              ------------------------------------------------------


                    Environmental Molecular Sciences Laboratory
                       Pacific Northwest National Laboratory
                                Richland, WA 99352

                              Copyright (c) 1994-2018
                       Pacific Northwest National Laboratory
                            Battelle Memorial Institute

             NWChem is an open-source computational chemistry package
                        distributed under the terms of the
                      Educational Community License (ECL) 2.0
             A copy of the license is included with this distribution
                              in the LICENSE.TXT file

                                  ACKNOWLEDGMENT
                                  --------------

            This software and its documentation were developed at the
            EMSL at Pacific Northwest National Laboratory, a multiprogram
            national laboratory, operated for the U.S. Department of Energy
            by Battelle under Contract Number DE-AC05-76RL01830. Support
            for this work was provided by the Department of Energy Office
            of Biological and Environmental Research, Office of Basic
            Energy Sciences, and the Office of Advanced Scientific Computing.


           Job information
           ---------------

    hostname        = WE35263ubuntu
    program         = /home/baum612/code/NWChem/nwchem/bin/LINUX64/nwchem
    date            = Wed Apr 10 15:44:13 2019

    compiled        = Thu_Apr_04_14:53:19_2019
    source          = /home/baum612/code/NWChem/nwchem
    nwchem branch   = Development
    nwchem revision = nwchem_on_git-845-ga8f432451
    ga revision     = 5.6.5
    use scalapack   = F
    input           = Li2-10_ORBITALS-ccpVTZ-4_67775.nw
    prefix          = Li2-REMOVE.
    data base       = ./Li2-REMOVE.db
    status          = startup
    nproc           =        1
    time left       =     -1s



           Memory information
           ------------------

    heap     =  805306366 doubles =   6144.0 Mbytes
    stack    =  805306363 doubles =   6144.0 Mbytes
    global   = 1610612736 doubles =  12288.0 Mbytes (distinct from heap & stack)
    total    = 3221225465 doubles =  24576.0 Mbytes
    verify   = yes
    hardfail = no 


           Directory information
           ---------------------

  0 permanent = .
  0 scratch   = .




                                NWChem Input Module
                                -------------------


                                    Li2-REMOVE
                                    ----------

 Scaling coordinates for geometry "geometry" by  1.889725989
 (inverse scale =  0.529177249)

 Turning off AUTOSYM since
 SYMMETRY directive was detected!


          ------
          auto-z
          ------
     1 autoz failed with cvr_scaling = 1.2 changing to 1.3
     2 autoz failed with cvr_scaling = 1.3 changing to 1.4
     3 autoz failed with cvr_scaling = 1.4 changing to 1.5
     4 autoz failed with cvr_scaling = 1.5 changing to 1.6
     5 autoz failed with cvr_scaling = 1.6 changing to 1.7

 AUTOZ failed to generate good internal coordinates.
 Cartesian coordinates will be used in optimizations.



                             Geometry "geometry" -> ""
                             -------------------------

 Output coordinates in angstroms (scale by  1.889725989 to convert to a.u.)

  No.       Tag          Charge          X              Y              Z
 ---- ---------------- ---------- -------------- -------------- --------------
    1 Li                   3.0000     0.00000000     0.00000000    -2.33887500
    2 Li                   3.0000     0.00000000     0.00000000     2.33887500

      Atomic Mass 
      ----------- 

      Li                 7.016000


 Effective nuclear repulsion energy (a.u.)       1.0181380452

            Nuclear Dipole moment (a.u.) 
            ----------------------------
        X                 Y               Z
 ---------------- ---------------- ----------------
     0.0000000000     0.0000000000     0.0000000000


            XYZ format geometry
            -------------------
     2
 geometry
 Li                    0.00000000     0.00000000    -2.33887500
 Li                    0.00000000     0.00000000     2.33887500



 Summary of "ao basis" -> "" (spherical)
 ------------------------------------------------------------------------------
       Tag                 Description            Shells   Functions and Types
 ---------------- ------------------------------  ------  ---------------------
 *                          cc-pvtz                   on all atoms 


                      Basis "ao basis" -> "ao basis" (spherical)
                      -----
  Li (Lithium)
  ------------
            Exponent  Coefficients 
       -------------- ---------------------------------------------------------
  1 S  5.98800000E+03  0.000133
  1 S  8.98900000E+02  0.001025
  1 S  2.05900000E+02  0.005272
  1 S  5.92400000E+01  0.020929
  1 S  1.98700000E+01  0.066340
  1 S  7.40600000E+00  0.165775
  1 S  2.93000000E+00  0.315038
  1 S  1.18900000E+00  0.393523
  1 S  4.79800000E-01  0.190870

  2 S  5.98800000E+03 -0.000021
  2 S  8.98900000E+02 -0.000161
  2 S  2.05900000E+02 -0.000820
  2 S  5.92400000E+01 -0.003326
  2 S  1.98700000E+01 -0.010519
  2 S  7.40600000E+00 -0.028097
  2 S  2.93000000E+00 -0.055936
  2 S  1.18900000E+00 -0.099237
  2 S  4.79800000E-01 -0.112189

  3 S  7.50900000E-02  1.000000

  4 S  2.83200000E-02  1.000000

  5 P  3.26600000E+00  0.008630
  5 P  6.51100000E-01  0.047538
  5 P  1.69600000E-01  0.209772

  6 P  5.57800000E-02  1.000000

  7 P  2.05000000E-02  1.000000

  8 D  1.87400000E-01  1.000000

  9 D  8.01000000E-02  1.000000

 10 F  1.82900000E-01  1.000000



 Summary of "ao basis" -> "ao basis" (spherical)
 ------------------------------------------------------------------------------
       Tag                 Description            Shells   Functions and Types
 ---------------- ------------------------------  ------  ---------------------
 Li                         cc-pvtz                 10       30   4s3p2d1f


                                 NWChem SCF Module
                                 -----------------


                                    Li2-REMOVE



  ao basis        = "ao basis"
  functions       =    60
  atoms           =     2
  closed shells   =     3
  open shells     =     0
  charge          =   0.00
  wavefunction    = RHF 
  input vectors   = atomic
  output vectors  = ./Li2-REMOVE.movecs
  use symmetry    = F
  symmetry adapt  = F


 Summary of "ao basis" -> "ao basis" (spherical)
 ------------------------------------------------------------------------------
       Tag                 Description            Shells   Functions and Types
 ---------------- ------------------------------  ------  ---------------------
 Li                         cc-pvtz                 10       30   4s3p2d1f



 Forming initial guess at       0.1s


      Superposition of Atomic Density Guess
      -------------------------------------

 Sum of atomic energies:         -14.86535760

      Non-variational initial energy
      ------------------------------

 Total energy =     -14.754074
 1-e energy   =     -21.462894
 2-e energy   =       5.690682
 HOMO         =      -0.108286
 LUMO         =      -0.057319


 Starting SCF solution at       0.1s



 ----------------------------------------------
         Quadratically convergent ROHF

 Convergence threshold     :          1.000E-10
 Maximum no. of iterations :          200
 Final Fock-matrix accuracy:          1.000E-10
 ----------------------------------------------


 Integral file          = ./Li2-REMOVE.aoints.0
 Record size in doubles =    65536    No. of integs per rec  =    43688
 Max. records in memory =       54    Max. records in file   =  1545092
 No. of bits per label  =        8    No. of bits per value  =       64


 #quartets = 2.182D+04 #integrals = 3.699D+05 #direct =  0.0% #cached =100.0%


              iter       energy          gnorm     gmax       time
             ----- ------------------- --------- --------- --------
                 1      -14.8357640075  4.40D-02  2.85D-02      0.3
                 2      -14.8371551622  1.93D-03  1.17D-03      0.4
                 3      -14.8371574553  2.04D-06  1.56D-06      0.4
                 4      -14.8371574553  2.30D-11  1.90D-11      0.4


       Final RHF  results 
       ------------------ 

         Total SCF energy =    -14.837157455311
      One-electron energy =    -21.425392670846
      Two-electron energy =      5.570097170322
 Nuclear repulsion energy =      1.018138045213

        Time for solution =      0.3s


             Final eigenvalues
             -----------------

              1      
    1   -2.4965
    2   -2.4965
    3   -0.1496
    4   -0.0199
    5    0.0268
    6    0.0268
    7    0.0301
    8    0.0454
    9    0.0454
   10    0.0547
   11    0.1133
   12    0.1236
   13    0.1236

                       ROHF Final Molecular Orbital Analysis
                       -------------------------------------

 Vector    2  Occ=2.000000D+00  E=-2.496477D+00
              MO Center= -6.8D-20,  4.8D-19, -9.4D-06, r^2= 5.6D+00
   Bfn.  Coefficient  Atom+Function         Bfn.  Coefficient  Atom+Function  
  ----- ------------  ---------------      ----- ------------  ---------------
     1      0.706849  1 Li s                 31     -0.706846  2 Li s          

 Vector    3  Occ=2.000000D+00  E=-1.496441D-01
              MO Center= -1.8D-15,  1.2D-15, -1.2D-14, r^2= 8.9D+00
   Bfn.  Coefficient  Atom+Function         Bfn.  Coefficient  Atom+Function  
  ----- ------------  ---------------      ----- ------------  ---------------
     4      0.427693  1 Li s                 34      0.427693  2 Li s          
     3      0.227122  1 Li s                 33      0.227122  2 Li s          

 Vector    4  Occ=0.000000D+00  E=-1.991630D-02
              MO Center=  7.3D-16, -4.2D-16,  3.5D-14, r^2= 1.9D+01
   Bfn.  Coefficient  Atom+Function         Bfn.  Coefficient  Atom+Function  
  ----- ------------  ---------------      ----- ------------  ---------------
     4      0.388722  1 Li s                 34     -0.388722  2 Li s          
    13     -0.297628  1 Li pz                43     -0.297628  2 Li pz         
     3      0.202461  1 Li s                 33     -0.202461  2 Li s          

 Vector    5  Occ=0.000000D+00  E= 2.680022D-02
              MO Center=  6.0D-15, -9.6D-16,  2.3D-13, r^2= 2.0D+01
   Bfn.  Coefficient  Atom+Function         Bfn.  Coefficient  Atom+Function  
  ----- ------------  ---------------      ----- ------------  ---------------
    11      0.560626  1 Li px                41      0.560626  2 Li px         

 Vector    6  Occ=0.000000D+00  E= 2.680022D-02
              MO Center= -1.7D-15, -1.2D-14,  1.6D-13, r^2= 2.0D+01
   Bfn.  Coefficient  Atom+Function         Bfn.  Coefficient  Atom+Function  
  ----- ------------  ---------------      ----- ------------  ---------------
    12      0.560626  1 Li py                42      0.560626  2 Li py         

 Vector    7  Occ=0.000000D+00  E= 3.014272D-02
              MO Center= -3.5D-16,  9.8D-15,  8.7D-13, r^2= 2.6D+01
   Bfn.  Coefficient  Atom+Function         Bfn.  Coefficient  Atom+Function  
  ----- ------------  ---------------      ----- ------------  ---------------
    13      0.637863  1 Li pz                43     -0.637863  2 Li pz         
     4     -0.429620  1 Li s                 34     -0.429620  2 Li s          

 Vector    8  Occ=0.000000D+00  E= 4.536302D-02
              MO Center= -2.6D-15, -2.5D-15, -1.9D-13, r^2= 2.7D+01
   Bfn.  Coefficient  Atom+Function         Bfn.  Coefficient  Atom+Function  
  ----- ------------  ---------------      ----- ------------  ---------------
    11      0.817001  1 Li px                41     -0.817001  2 Li px         
    12      0.538857  1 Li py                42     -0.538857  2 Li py         

 Vector    9  Occ=0.000000D+00  E= 4.536302D-02
              MO Center=  4.7D-15, -5.1D-15, -2.2D-13, r^2= 2.7D+01
   Bfn.  Coefficient  Atom+Function         Bfn.  Coefficient  Atom+Function  
  ----- ------------  ---------------      ----- ------------  ---------------
    12      0.817001  1 Li py                42     -0.817001  2 Li py         
    11     -0.538857  1 Li px                41      0.538857  2 Li px         

 Vector   10  Occ=0.000000D+00  E= 5.468283D-02
              MO Center= -2.9D-17,  9.2D-15, -3.6D-13, r^2= 3.9D+01
   Bfn.  Coefficient  Atom+Function         Bfn.  Coefficient  Atom+Function  
  ----- ------------  ---------------      ----- ------------  ---------------
    13      1.609463  1 Li pz                43      1.609463  2 Li pz         
     4      1.479460  1 Li s                 34     -1.479460  2 Li s          
    10     -0.222319  1 Li pz                40     -0.222319  2 Li pz         

 Vector   11  Occ=0.000000D+00  E= 1.133019D-01
              MO Center=  5.0D-16,  2.1D-16, -1.0D-13, r^2= 2.4D+01
   Bfn.  Coefficient  Atom+Function         Bfn.  Coefficient  Atom+Function  
  ----- ------------  ---------------      ----- ------------  ---------------
    10      0.948523  1 Li pz                40     -0.948523  2 Li pz         
    13     -0.941677  1 Li pz                43      0.941677  2 Li pz         
     4      0.262072  1 Li s                 34      0.262072  2 Li s          

 Vector   12  Occ=0.000000D+00  E= 1.236006D-01
              MO Center=  3.3D-16, -7.5D-17, -8.4D-14, r^2= 1.8D+01
   Bfn.  Coefficient  Atom+Function         Bfn.  Coefficient  Atom+Function  
  ----- ------------  ---------------      ----- ------------  ---------------
     8      0.858760  1 Li px                38      0.858760  2 Li px         
    11     -0.631256  1 Li px                41     -0.631256  2 Li px         
     9     -0.439791  1 Li py                39     -0.439791  2 Li py         
    12      0.323281  1 Li py                42      0.323281  2 Li py         

 Vector   13  Occ=0.000000D+00  E= 1.236006D-01
              MO Center=  6.9D-16,  1.5D-15, -1.9D-14, r^2= 1.8D+01
   Bfn.  Coefficient  Atom+Function         Bfn.  Coefficient  Atom+Function  
  ----- ------------  ---------------      ----- ------------  ---------------
     9      0.858760  1 Li py                39      0.858760  2 Li py         
    12     -0.631256  1 Li py                42     -0.631256  2 Li py         
     8      0.439791  1 Li px                38      0.439791  2 Li px         
    11     -0.323281  1 Li px                41     -0.323281  2 Li px         

 Vector   14  Occ=0.000000D+00  E= 1.334835D-01
              MO Center= -1.8D-16,  1.2D-15,  7.4D-14, r^2= 2.0D+01
   Bfn.  Coefficient  Atom+Function         Bfn.  Coefficient  Atom+Function  
  ----- ------------  ---------------      ----- ------------  ---------------
    11     -0.778946  1 Li px                41      0.778946  2 Li px         
     8      0.772043  1 Li px                38     -0.772043  2 Li px         
    12      0.637249  1 Li py                42     -0.637249  2 Li py         
     9     -0.631602  1 Li py                39      0.631602  2 Li py         

 Vector   15  Occ=0.000000D+00  E= 1.334835D-01
              MO Center=  9.0D-16, -3.8D-16,  2.6D-14, r^2= 2.0D+01
   Bfn.  Coefficient  Atom+Function         Bfn.  Coefficient  Atom+Function  
  ----- ------------  ---------------      ----- ------------  ---------------
    12     -0.778946  1 Li py                42      0.778946  2 Li py         
     9      0.772043  1 Li py                39     -0.772043  2 Li py         
    11     -0.637249  1 Li px                41      0.637249  2 Li px         
     8      0.631602  1 Li px                38     -0.631602  2 Li px         

 Vector   16  Occ=0.000000D+00  E= 1.432434D-01
              MO Center=  3.0D-16,  1.1D-15, -8.7D-13, r^2= 1.6D+01
   Bfn.  Coefficient  Atom+Function         Bfn.  Coefficient  Atom+Function  
  ----- ------------  ---------------      ----- ------------  ---------------
    10      0.855059  1 Li pz                40      0.855059  2 Li pz         
    13     -0.496811  1 Li pz                43     -0.496811  2 Li pz         
    21     -0.239148  1 Li d  0              51      0.239148  2 Li d  0       
     4      0.207890  1 Li s                 34     -0.207890  2 Li s          
     3     -0.196886  1 Li s                 33      0.196886  2 Li s          

 Vector   17  Occ=0.000000D+00  E= 1.484956D-01
              MO Center= -3.6D-15, -1.7D-15,  2.0D-13, r^2= 1.4D+01
   Bfn.  Coefficient  Atom+Function         Bfn.  Coefficient  Atom+Function  
  ----- ------------  ---------------      ----- ------------  ---------------
     3      1.369889  1 Li s                 33      1.369889  2 Li s          
     4     -1.066034  1 Li s                 34     -1.066034  2 Li s          
     2      0.340759  1 Li s                 32      0.340759  2 Li s          
    21      0.172993  1 Li d  0              51      0.172993  2 Li d  0       

 Vector   18  Occ=0.000000D+00  E= 1.941334D-01
              MO Center=  2.4D-16, -1.8D-15,  2.2D-13, r^2= 1.8D+01
   Bfn.  Coefficient  Atom+Function         Bfn.  Coefficient  Atom+Function  
  ----- ------------  ---------------      ----- ------------  ---------------
     4      2.860965  1 Li s                 34     -2.860965  2 Li s          
     3     -1.898089  1 Li s                 33      1.898089  2 Li s          
    13      1.182007  1 Li pz                43      1.182007  2 Li pz         
     2     -0.382831  1 Li s                 32      0.382831  2 Li s          

 Vector   19  Occ=0.000000D+00  E= 2.095233D-01
              MO Center=  2.4D-16,  3.1D-16, -2.1D-14, r^2= 1.2D+01
   Bfn.  Coefficient  Atom+Function         Bfn.  Coefficient  Atom+Function  
  ----- ------------  ---------------      ----- ------------  ---------------
    20      0.719398  1 Li d -1              50     -0.719398  2 Li d -1       

 Vector   20  Occ=0.000000D+00  E= 2.095233D-01
              MO Center= -2.0D-15, -7.6D-17, -1.7D-14, r^2= 1.2D+01
   Bfn.  Coefficient  Atom+Function         Bfn.  Coefficient  Atom+Function  
  ----- ------------  ---------------      ----- ------------  ---------------
    22      0.719398  1 Li d  1              52     -0.719398  2 Li d  1       

 Vector   21  Occ=0.000000D+00  E= 2.198282D-01
              MO Center= -6.9D-16, -2.4D-16,  8.7D-14, r^2= 1.2D+01
   Bfn.  Coefficient  Atom+Function         Bfn.  Coefficient  Atom+Function  
  ----- ------------  ---------------      ----- ------------  ---------------
    19      0.603668  1 Li d -2              49      0.603668  2 Li d -2       
    23      0.522494  1 Li d  2              53      0.522494  2 Li d  2       

 Vector   22  Occ=0.000000D+00  E= 2.198282D-01
              MO Center= -1.2D-15, -7.0D-16,  1.2D-13, r^2= 1.2D+01
   Bfn.  Coefficient  Atom+Function         Bfn.  Coefficient  Atom+Function  
  ----- ------------  ---------------      ----- ------------  ---------------
    23      0.603668  1 Li d  2              53      0.603668  2 Li d  2       
    19     -0.522494  1 Li d -2              49     -0.522494  2 Li d -2       

 Vector   23  Occ=0.000000D+00  E= 2.406834D-01
              MO Center= -5.1D-16, -3.7D-15, -1.1D-13, r^2= 1.3D+01
   Bfn.  Coefficient  Atom+Function         Bfn.  Coefficient  Atom+Function  
  ----- ------------  ---------------      ----- ------------  ---------------
    23      0.690916  1 Li d  2              53     -0.690916  2 Li d  2       
    19      0.462730  1 Li d -2              49     -0.462730  2 Li d -2       

 Vector   24  Occ=0.000000D+00  E= 2.406834D-01
              MO Center=  6.3D-17, -6.5D-16, -1.0D-13, r^2= 1.3D+01
   Bfn.  Coefficient  Atom+Function         Bfn.  Coefficient  Atom+Function  
  ----- ------------  ---------------      ----- ------------  ---------------
    19      0.690916  1 Li d -2              49     -0.690916  2 Li d -2       
    23     -0.462730  1 Li d  2              53      0.462730  2 Li d  2       

 Vector   25  Occ=0.000000D+00  E= 2.618261D-01
              MO Center=  1.3D-15,  5.2D-16,  1.1D-13, r^2= 1.4D+01
   Bfn.  Coefficient  Atom+Function         Bfn.  Coefficient  Atom+Function  
  ----- ------------  ---------------      ----- ------------  ---------------
    21      0.735352  1 Li d  0              51      0.735352  2 Li d  0       
     3     -0.492100  1 Li s                 33     -0.492100  2 Li s          
    10     -0.426226  1 Li pz                40      0.426226  2 Li pz         
    13      0.385868  1 Li pz                43     -0.385868  2 Li pz         
     4      0.208410  1 Li s                 34      0.208410  2 Li s          

 Vector   26  Occ=0.000000D+00  E= 2.881398D-01
              MO Center=  1.7D-16,  1.9D-16,  4.8D-14, r^2= 1.4D+01
   Bfn.  Coefficient  Atom+Function         Bfn.  Coefficient  Atom+Function  
  ----- ------------  ---------------      ----- ------------  ---------------
    20      0.869850  1 Li d -1              50      0.869850  2 Li d -1       
    22     -0.387901  1 Li d  1              52     -0.387901  2 Li d  1       
    12      0.228417  1 Li py                42     -0.228417  2 Li py         

 Vector   27  Occ=0.000000D+00  E= 2.881398D-01
              MO Center= -3.5D-17, -9.1D-17,  5.0D-14, r^2= 1.4D+01
   Bfn.  Coefficient  Atom+Function         Bfn.  Coefficient  Atom+Function  
  ----- ------------  ---------------      ----- ------------  ---------------
    22      0.869850  1 Li d  1              52      0.869850  2 Li d  1       
    20      0.387901  1 Li d -1              50      0.387901  2 Li d -1       
    11     -0.228417  1 Li px                41      0.228417  2 Li px         

 Vector   28  Occ=0.000000D+00  E= 3.391913D-01
              MO Center=  1.2D-16, -9.6D-17,  4.8D-13, r^2= 1.5D+01
   Bfn.  Coefficient  Atom+Function         Bfn.  Coefficient  Atom+Function  
  ----- ------------  ---------------      ----- ------------  ---------------
     4      1.821727  1 Li s                 34     -1.821727  2 Li s          
    21      1.167153  1 Li d  0              51     -1.167153  2 Li d  0       
    13      0.809536  1 Li pz                43      0.809536  2 Li pz         
     3     -0.658071  1 Li s                 33      0.658071  2 Li s          
    10      0.350503  1 Li pz                40      0.350503  2 Li pz         

 Vector   29  Occ=0.000000D+00  E= 4.468531D-01
              MO Center=  3.7D-17,  4.1D-16,  1.2D-11, r^2= 1.1D+01
   Bfn.  Coefficient  Atom+Function         Bfn.  Coefficient  Atom+Function  
  ----- ------------  ---------------      ----- ------------  ---------------
     8     -0.930877  1 Li px                38     -0.930877  2 Li px         
     5      0.909849  1 Li px                35      0.909849  2 Li px         
     9      0.380170  1 Li py                39      0.380170  2 Li py         
     6     -0.371582  1 Li py                36     -0.371582  2 Li py         
    11      0.361794  1 Li px                41      0.361794  2 Li px         

 Vector   30  Occ=0.000000D+00  E= 4.468531D-01
              MO Center= -4.1D-16, -3.4D-16,  1.1D-11, r^2= 1.1D+01
   Bfn.  Coefficient  Atom+Function         Bfn.  Coefficient  Atom+Function  
  ----- ------------  ---------------      ----- ------------  ---------------
     9     -0.930877  1 Li py                39     -0.930877  2 Li py         
     6      0.909849  1 Li py                36      0.909849  2 Li py         
     8     -0.380170  1 Li px                38     -0.380170  2 Li px         
     5      0.371582  1 Li px                35      0.371582  2 Li px         
    12      0.361794  1 Li py                42      0.361794  2 Li py         

 Vector   31  Occ=0.000000D+00  E= 4.647123D-01
              MO Center= -5.3D-16,  9.7D-16, -1.2D-11, r^2= 1.1D+01
   Bfn.  Coefficient  Atom+Function         Bfn.  Coefficient  Atom+Function  
  ----- ------------  ---------------      ----- ------------  ---------------
     9      0.994376  1 Li py                39     -0.994376  2 Li py         
     6     -0.882258  1 Li py                36      0.882258  2 Li py         
     8     -0.526569  1 Li px                38      0.526569  2 Li px         
    12     -0.496481  1 Li py                42      0.496481  2 Li py         
     5      0.467197  1 Li px                35     -0.467197  2 Li px         

 Vector   32  Occ=0.000000D+00  E= 4.647123D-01
              MO Center= -1.1D-15, -2.4D-16, -1.2D-11, r^2= 1.1D+01
   Bfn.  Coefficient  Atom+Function         Bfn.  Coefficient  Atom+Function  
  ----- ------------  ---------------      ----- ------------  ---------------
     8      0.994376  1 Li px                38     -0.994376  2 Li px         
     5     -0.882258  1 Li px                35      0.882258  2 Li px         
     9      0.526569  1 Li py                39     -0.526569  2 Li py         
    11     -0.496481  1 Li px                41      0.496481  2 Li px         
     6     -0.467197  1 Li py                36      0.467197  2 Li py         

 Vector   33  Occ=0.000000D+00  E= 4.686005D-01
              MO Center= -4.9D-16, -1.5D-15,  3.1D-12, r^2= 1.1D+01
   Bfn.  Coefficient  Atom+Function         Bfn.  Coefficient  Atom+Function  
  ----- ------------  ---------------      ----- ------------  ---------------
     7      0.985282  1 Li pz                37     -0.985282  2 Li pz         
    10     -0.976911  1 Li pz                40      0.976911  2 Li pz         
    13      0.465025  1 Li pz                43     -0.465025  2 Li pz         

 Vector   34  Occ=0.000000D+00  E= 5.196334D-01
              MO Center=  8.9D-18,  4.1D-16, -3.8D-12, r^2= 1.1D+01
   Bfn.  Coefficient  Atom+Function         Bfn.  Coefficient  Atom+Function  
  ----- ------------  ---------------      ----- ------------  ---------------
    10      1.654376  1 Li pz                40      1.654376  2 Li pz         
     4      1.050647  1 Li s                 34     -1.050647  2 Li s          
     7     -0.975948  1 Li pz                37     -0.975948  2 Li pz         
    21      0.660083  1 Li d  0              51     -0.660083  2 Li d  0       
     3     -0.359795  1 Li s                 33      0.359795  2 Li s          


 center of mass
 --------------
 x =   0.00000000 y =   0.00000000 z =   0.00000000

 moments of inertia (a.u.)
 ------------------
         274.114034096439           0.000000000000           0.000000000000
           0.000000000000         274.114034096439           0.000000000000
           0.000000000000           0.000000000000           0.000000000000

  Mulliken analysis of the total density
  --------------------------------------

    Atom       Charge   Shell Charges
 -----------   ------   -------------------------------------------------------
    1 Li   3     3.00   2.00 -0.01  0.29  0.68  0.00  0.02  0.02  0.00  0.00  0.00
    2 Li   3     3.00   2.00 -0.01  0.29  0.68  0.00  0.02  0.02  0.00  0.00  0.00

       Multipole analysis of the density wrt the origin
       ------------------------------------------------

     L   x y z        total         open         nuclear
     -   - - -        -----         ----         -------
     0   0 0 0     -0.000000      0.000000      6.000000

     1   1 0 0      0.000000      0.000000      0.000000
     1   0 1 0     -0.000000      0.000000      0.000000
     1   0 0 1     -0.000000      0.000000      0.000000

     2   2 0 0    -14.565193      0.000000      0.000000
     2   1 1 0     -0.000000      0.000000      0.000000
     2   1 0 1      0.000000      0.000000      0.000000
     2   0 2 0    -14.565193      0.000000      0.000000
     2   0 1 1      0.000000      0.000000      0.000000
     2   0 0 2      2.660190      0.000000    117.209536


 Parallel integral file used       9 records with       0 large values

                   NWChem Extensible Many-Electron Theory Module
                   ---------------------------------------------

              ======================================================
                   This portion of the program was automatically
                  generated by a Tensor Contraction Engine (TCE).
                  The development of this portion of the program
                 and TCE was supported by US Department of Energy,
                Office of Science, Office of Basic Energy Science.
                      TCE is a product of Battelle and PNNL.
              Please cite: S.Hirata, J.Phys.Chem.A 107, 9887 (2003).
              ======================================================

                                    Li2-REMOVE


            General Information
            -------------------
      Number of processors :     1
         Wavefunction type : Restricted Hartree-Fock
          No. of electrons :     6
           Alpha electrons :     3
            Beta electrons :     3
           No. of orbitals :   120
            Alpha orbitals :    60
             Beta orbitals :    60
        Alpha frozen cores :     0
         Beta frozen cores :     0
     Alpha frozen virtuals :    50
      Beta frozen virtuals :    50
         Spin multiplicity : singlet 
    Number of AO functions :    60
       Number of AO shells :    20
        Use of symmetry is : off
      Symmetry adaption is : off
         Schwarz screening : 0.10D-09

          Correlation Information
          -----------------------
          Calculation type : Coupled-cluster singles & doubles                           
   Perturbative correction : none                                                        
            Max iterations :      200
        Residual threshold : 0.10D-05
     T(0) DIIS level shift : 0.00D+00
     L(0) DIIS level shift : 0.00D+00
     T(1) DIIS level shift : 0.00D+00
     L(1) DIIS level shift : 0.00D+00
     T(R) DIIS level shift : 0.00D+00
     T(I) DIIS level shift : 0.00D+00
   CC-T/L Amplitude update :  5-th order DIIS
                I/O scheme : Global Array Library
        L-threshold :  0.10D-05
        EOM-threshold :  0.10D-05
 no EOMCCSD initial starts read in
 TCE RESTART OPTIONS
 READ_INT:   F
 WRITE_INT:  F
 READ_TA:    F
 WRITE_TA:   F
 READ_XA:    F
 WRITE_XA:   F
 READ_IN3:   F
 WRITE_IN3:  F
 SLICE:      F
 D4D5:       F
 quantumc:   F
 qrotation:  F
 qducc:      F
 nacto:                         0
 nrotv:                         0
 nrot:                          0

            Memory Information
            ------------------
          Available GA space size is    1610609136 doubles
          Available MA space size is    1610610004 doubles

 Maximum block size supplied by input
 Maximum block size         5 doubles

 tile_dim =      4

 Block   Spin    Irrep     Size     Offset   Alpha
 -------------------------------------------------
   1    alpha     a      3 doubles       0       1
   2    beta      a      3 doubles       3       1
   3    alpha     a      3 doubles       6       3
   4    alpha     a      4 doubles       9       4
   5    beta      a      3 doubles      13       3
   6    beta      a      4 doubles      16       4

 Global array virtual files algorithm will be used

 Parallel file system coherency ......... OK

 Integral file          = ./Li2-REMOVE.aoints.0
 Record size in doubles =    65536    No. of integs per rec  =    43688
 Max. records in memory =       54    Max. records in file   =  1545092
 No. of bits per label  =        8    No. of bits per value  =       64


 #quartets = 2.182D+04 #integrals = 3.699D+05 #direct =  0.0% #cached =100.0%


 Fock matrix recomputed
 1-e file size   =              100
 1-e file name   = ./Li2-REMOVE.f1
 Cpu & wall time / sec            0.2            0.2
 4-electron integrals stored in orbital form

 v2    file size   =             2638
 4-index algorithm nr.  13 is used
 imaxsize =       30
 imaxsize ichop =        0
 Cpu & wall time / sec            1.8            1.8
 T1-number-of-tasks                    2

 t1 file size   =               21
 t1 file name   = ./Li2-REMOVE.t1
 t1 file handle =       -998
 T2-number-of-boxes                    7

 t2 file size   =              774
 t2 file name   = ./Li2-REMOVE.t2
 t2 file handle =       -996

 CCSD iterations
 -----------------------------------------------------------------
 Iter          Residuum       Correlation     Cpu    Wall    V2*C2
 -----------------------------------------------------------------
    1   0.0326371280611  -0.0107127134994     0.0     0.0     0.0
    2   0.0198020026893  -0.0166531358031     0.0     0.0     0.0
    3   0.0126776998475  -0.0199666504473     0.0     0.0     0.0
    4   0.0082261857107  -0.0219726122447     0.0     0.0     0.0
    5   0.0053612122001  -0.0232241017194     0.0     0.0     0.0
 MICROCYCLE DIIS UPDATE:                    5                    5
    6   0.0003580165707  -0.0254187050793     0.0     0.0     0.0
    7   0.0001116214595  -0.0254102653124     0.0     0.0     0.0
    8   0.0000572400921  -0.0254155484003     0.0     0.0     0.0
    9   0.0000321831942  -0.0254187728707     0.0     0.0     0.0
   10   0.0000188851512  -0.0254209974618     0.0     0.0     0.0
 MICROCYCLE DIIS UPDATE:                   10                    5
   11   0.0000040857217  -0.0254244157898     0.0     0.0     0.0
   12   0.0000020419508  -0.0254250381283     0.0     0.0     0.0
   13   0.0000011681168  -0.0254253229533     0.0     0.0     0.0
   14   0.0000007050565  -0.0254254831771     0.0     0.0     0.0
 -----------------------------------------------------------------
 Iterations converged
 CCSD correlation energy / hartree =        -0.025425483177109
 CCSD total energy / hartree       =       -14.862582938487638

 Singles contributions
     7a   (alpha) ---     3a   (alpha)       -0.1043343369

 Doubles contributions
     4a   (alpha)     4a   (beta ) ---     3a   (alpha)     3a   (beta )       -0.4359771921
     5a   (alpha)     5a   (beta ) ---     3a   (alpha)     3a   (beta )       -0.0566320522
     6a   (alpha)     6a   (beta ) ---     3a   (alpha)     3a   (beta )       -0.0566320522
     4a   (alpha)    10a   (beta ) ---     3a   (alpha)     3a   (beta )       -0.1428340219
    10a   (alpha)     4a   (beta ) ---     3a   (alpha)     3a   (beta )       -0.1428340219
     7a   (alpha)     7a   (beta ) ---     3a   (alpha)     3a   (beta )       -0.0609753186
     8a   (alpha)     8a   (beta ) ---     3a   (alpha)     3a   (beta )        0.0016094405
     9a   (alpha)     9a   (beta ) ---     3a   (alpha)     3a   (beta )        0.0016094405
    10a   (alpha)    10a   (beta ) ---     3a   (alpha)     3a   (beta )       -0.0471800766

 Parallel integral file used       9 records with       0 large values


 Task  times  cpu:        2.6s     wall:        2.7s


                                NWChem Input Module
                                -------------------


 Summary of allocated global arrays
-----------------------------------
  No active global arrays



                         GA Statistics for process    0
                         ------------------------------

       create   destroy   get      put      acc     scatter   gather  read&inc
calls: 1807     1807     2.12e+04 3538     7071        0        0     7638     
number of processes/call 1.00e+00 1.00e+00 1.00e+00 0.00e+00 0.00e+00
bytes total:             3.74e+08 6.38e+07 4.95e+06 0.00e+00 0.00e+00 6.11e+04
bytes remote:            0.00e+00 0.00e+00 0.00e+00 0.00e+00 0.00e+00 0.00e+00
Max memory consumed for GA by this process: 58413920 bytes

MA_summarize_allocated_blocks: starting scan ...
MA_summarize_allocated_blocks: scan completed: 0 heap blocks, 0 stack blocks
MA usage statistics:

	allocation statistics:
					      heap	     stack
					      ----	     -----
	current number of blocks	         0	         0
	maximum number of blocks	        17	        33
	current total bytes		         0	         0
	maximum total bytes		  28329736	  39282552
	maximum total K-bytes		     28330	     39283
	maximum total M-bytes		        29	        40


                                     CITATION
                                     --------
                Please cite the following reference when publishing
                           results obtained with NWChem:

                 M. Valiev, E.J. Bylaska, N. Govind, K. Kowalski,
              T.P. Straatsma, H.J.J. van Dam, D. Wang, J. Nieplocha,
                        E. Apra, T.L. Windus, W.A. de Jong
                 "NWChem: a comprehensive and scalable open-source
                  solution for large scale molecular simulations"
                      Comput. Phys. Commun. 181, 1477 (2010)
                           doi:10.1016/j.cpc.2010.04.018

                                      AUTHORS
                                      -------
          E. Apra, E. J. Bylaska, W. A. de Jong, N. Govind, K. Kowalski,
       T. P. Straatsma, M. Valiev, H. J. J. van Dam, D. Wang, T. L. Windus,
        J. Hammond, J. Autschbach, K. Bhaskaran-Nair, J. Brabec, K. Lopata,
    S. A. Fischer, S. Krishnamoorthy, M. Jacquelin, W. Ma, M. Klemm, O. Villa,
      Y. Chen, V. Anisimov, F. Aquino, S. Hirata, M. T. Hackler, V. Konjkov,
            D. Mejia-Rodriguez, T. Risthaus, M. Malagoli, A. Marenich,
   A. Otero-de-la-Roza, J. Mullin, P. Nichols, R. Peverati, J. Pittner, Y. Zhao,
        P.-D. Fan, A. Fonari, M. J. Williamson, R. J. Harrison, J. R. Rehr,
      M. Dupuis, D. Silverstein, D. M. A. Smith, J. Nieplocha, V. Tipparaju,
    M. Krishnan, B. E. Van Kuiken, A. Vazquez-Mayagoitia, L. Jensen, M. Swart,
      Q. Wu, T. Van Voorhis, A. A. Auer, M. Nooijen, L. D. Crosby, E. Brown,
      G. Cisneros, G. I. Fann, H. Fruchtl, J. Garza, K. Hirao, R. A. Kendall,
      J. A. Nichols, K. Tsemekhman, K. Wolinski, J. Anchell, D. E. Bernholdt,
      P. Borowski, T. Clark, D. Clerc, H. Dachsel, M. J. O. Deegan, K. Dyall,
    D. Elwood, E. Glendening, M. Gutowski, A. C. Hess, J. Jaffe, B. G. Johnson,
     J. Ju, R. Kobayashi, R. Kutteh, Z. Lin, R. Littlefield, X. Long, B. Meng,
      T. Nakajima, S. Niu, L. Pollack, M. Rosing, K. Glaesemann, G. Sandrone,
      M. Stave, H. Taylor, G. Thomas, J. H. van Lenthe, A. T. Wong, Z. Zhang.

 Total times  cpu:        2.6s     wall:        2.7s
