 argument  1 = Li2-10_ORBITALS-ccpVTZ-2_1384.nw
  NWChem w/ OpenMP: maximum threads =    1



============================== echo of input deck ==============================
title "Li2-REMOVE"
echo
start Li2-REMOVE

memory total 24 gb

geometry  units angstrom
symmetry c1
Li  0    0    0
Li  0    0    2.1384
end

basis spherical
   * library cc-pvtz
end

scf
thresh 1.0e-10
tol2e 1.0e-10
rhf
singlet
maxiter 200
end

tce
   ccsd
   maxiter 200
   thresh 1.e-6
   2eorb
   2emet 13
   tilesize 5
end

set tce:qducc T
set tce:nactv 7

task tce energy

================================================================================


                                         
                                         


              Northwest Computational Chemistry Package (NWChem) 6.8
              ------------------------------------------------------


                    Environmental Molecular Sciences Laboratory
                       Pacific Northwest National Laboratory
                                Richland, WA 99352

                              Copyright (c) 1994-2018
                       Pacific Northwest National Laboratory
                            Battelle Memorial Institute

             NWChem is an open-source computational chemistry package
                        distributed under the terms of the
                      Educational Community License (ECL) 2.0
             A copy of the license is included with this distribution
                              in the LICENSE.TXT file

                                  ACKNOWLEDGMENT
                                  --------------

            This software and its documentation were developed at the
            EMSL at Pacific Northwest National Laboratory, a multiprogram
            national laboratory, operated for the U.S. Department of Energy
            by Battelle under Contract Number DE-AC05-76RL01830. Support
            for this work was provided by the Department of Energy Office
            of Biological and Environmental Research, Office of Basic
            Energy Sciences, and the Office of Advanced Scientific Computing.


           Job information
           ---------------

    hostname        = WE35263ubuntu
    program         = /home/baum612/code/NWChem/nwchem/bin/LINUX64/nwchem
    date            = Mon Apr  8 21:40:31 2019

    compiled        = Thu_Apr_04_14:53:19_2019
    source          = /home/baum612/code/NWChem/nwchem
    nwchem branch   = Development
    nwchem revision = nwchem_on_git-845-ga8f432451
    ga revision     = 5.6.5
    use scalapack   = F
    input           = Li2-10_ORBITALS-ccpVTZ-2_1384.nw
    prefix          = Li2-REMOVE.
    data base       = ./Li2-REMOVE.db
    status          = startup
    nproc           =        1
    time left       =     -1s



           Memory information
           ------------------

    heap     =  805306368 doubles =   6144.0 Mbytes
    stack    =  805306365 doubles =   6144.0 Mbytes
    global   = 1610612736 doubles =  12288.0 Mbytes (distinct from heap & stack)
    total    = 3221225469 doubles =  24576.0 Mbytes
    verify   = yes
    hardfail = no 


           Directory information
           ---------------------

  0 permanent = .
  0 scratch   = .




                                NWChem Input Module
                                -------------------


                                    Li2-REMOVE
                                    ----------

 Scaling coordinates for geometry "geometry" by  1.889725989
 (inverse scale =  0.529177249)

 Turning off AUTOSYM since
 SYMMETRY directive was detected!


          ------
          auto-z
          ------
  no constraints, skipping    0.0000000000000000     
  no constraints, skipping    0.0000000000000000     


                             Geometry "geometry" -> ""
                             -------------------------

 Output coordinates in angstroms (scale by  1.889725989 to convert to a.u.)

  No.       Tag          Charge          X              Y              Z
 ---- ---------------- ---------- -------------- -------------- --------------
    1 Li                   3.0000     0.00000000     0.00000000    -1.06920000
    2 Li                   3.0000     0.00000000     0.00000000     1.06920000

      Atomic Mass 
      ----------- 

      Li                 7.016000


 Effective nuclear repulsion energy (a.u.)       2.2271769739

            Nuclear Dipole moment (a.u.) 
            ----------------------------
        X                 Y               Z
 ---------------- ---------------- ----------------
     0.0000000000     0.0000000000     0.0000000000



                                Z-matrix (autoz)
                                -------- 

 Units are Angstrom for bonds and degrees for angles

      Type          Name      I     J     K     L     M      Value
      ----------- --------  ----- ----- ----- ----- ----- ----------
    1 Stretch                  1     2                       2.13840


            XYZ format geometry
            -------------------
     2
 geometry
 Li                    0.00000000     0.00000000    -1.06920000
 Li                    0.00000000     0.00000000     1.06920000

 ==============================================================================
                                internuclear distances
 ------------------------------------------------------------------------------
       center one      |      center two      | atomic units |  angstroms
 ------------------------------------------------------------------------------
    2 Li               |   1 Li               |     4.04099  |     2.13840
 ------------------------------------------------------------------------------
                         number of included internuclear distances:          1
 ==============================================================================





 Summary of "ao basis" -> "" (spherical)
 ------------------------------------------------------------------------------
       Tag                 Description            Shells   Functions and Types
 ---------------- ------------------------------  ------  ---------------------
 *                          cc-pvtz                   on all atoms 


                      Basis "ao basis" -> "ao basis" (spherical)
                      -----
  Li (Lithium)
  ------------
            Exponent  Coefficients 
       -------------- ---------------------------------------------------------
  1 S  5.98800000E+03  0.000133
  1 S  8.98900000E+02  0.001025
  1 S  2.05900000E+02  0.005272
  1 S  5.92400000E+01  0.020929
  1 S  1.98700000E+01  0.066340
  1 S  7.40600000E+00  0.165775
  1 S  2.93000000E+00  0.315038
  1 S  1.18900000E+00  0.393523
  1 S  4.79800000E-01  0.190870

  2 S  5.98800000E+03 -0.000021
  2 S  8.98900000E+02 -0.000161
  2 S  2.05900000E+02 -0.000820
  2 S  5.92400000E+01 -0.003326
  2 S  1.98700000E+01 -0.010519
  2 S  7.40600000E+00 -0.028097
  2 S  2.93000000E+00 -0.055936
  2 S  1.18900000E+00 -0.099237
  2 S  4.79800000E-01 -0.112189

  3 S  7.50900000E-02  1.000000

  4 S  2.83200000E-02  1.000000

  5 P  3.26600000E+00  0.008630
  5 P  6.51100000E-01  0.047538
  5 P  1.69600000E-01  0.209772

  6 P  5.57800000E-02  1.000000

  7 P  2.05000000E-02  1.000000

  8 D  1.87400000E-01  1.000000

  9 D  8.01000000E-02  1.000000

 10 F  1.82900000E-01  1.000000



 Summary of "ao basis" -> "ao basis" (spherical)
 ------------------------------------------------------------------------------
       Tag                 Description            Shells   Functions and Types
 ---------------- ------------------------------  ------  ---------------------
 Li                         cc-pvtz                 10       30   4s3p2d1f


                                 NWChem SCF Module
                                 -----------------


                                    Li2-REMOVE



  ao basis        = "ao basis"
  functions       =    60
  atoms           =     2
  closed shells   =     3
  open shells     =     0
  charge          =   0.00
  wavefunction    = RHF 
  input vectors   = atomic
  output vectors  = ./Li2-REMOVE.movecs
  use symmetry    = F
  symmetry adapt  = F


 Summary of "ao basis" -> "ao basis" (spherical)
 ------------------------------------------------------------------------------
       Tag                 Description            Shells   Functions and Types
 ---------------- ------------------------------  ------  ---------------------
 Li                         cc-pvtz                 10       30   4s3p2d1f



 Forming initial guess at       0.1s


      Superposition of Atomic Density Guess
      -------------------------------------

 Sum of atomic energies:         -14.86535760

      Non-variational initial energy
      ------------------------------

 Total energy =     -14.839509
 1-e energy   =     -23.746339
 2-e energy   =       6.679653
 HOMO         =      -0.180329
 LUMO         =      -0.010320


 Starting SCF solution at       0.2s



 ----------------------------------------------
         Quadratically convergent ROHF

 Convergence threshold     :          1.000E-10
 Maximum no. of iterations :          200
 Final Fock-matrix accuracy:          1.000E-10
 ----------------------------------------------


 Integral file          = ./Li2-REMOVE.aoints.0
 Record size in doubles =    65536    No. of integs per rec  =    43688
 Max. records in memory =       54    Max. records in file   =  1545292
 No. of bits per label  =        8    No. of bits per value  =       64


 #quartets = 2.216D+04 #integrals = 3.711D+05 #direct =  0.0% #cached =100.0%


              iter       energy          gnorm     gmax       time
             ----- ------------------- --------- --------- --------
                 1      -14.8523901807  7.63D-02  3.66D-02      0.4
                 2      -14.8542986409  3.06D-03  1.73D-03      0.4
                 3      -14.8543032022  4.76D-06  3.40D-06      0.5
                 4      -14.8543032022  8.62D-12  5.62D-12      0.5


       Final RHF  results 
       ------------------ 

         Total SCF energy =    -14.854303202202
      One-electron energy =    -23.960243367783
      Two-electron energy =      6.878763191677
 Nuclear repulsion energy =      2.227176973904

        Time for solution =      0.4s


             Final eigenvalues
             -----------------

              1      
    1   -2.4560
    2   -2.4531
    3   -0.1923
    4    0.0110
    5    0.0245
    6    0.0245
    7    0.0411
    8    0.0576
    9    0.0576
   10    0.0667
   11    0.1080
   12    0.1084
   13    0.1084

                       ROHF Final Molecular Orbital Analysis
                       -------------------------------------

 Vector    2  Occ=2.000000D+00  E=-2.453077D+00
              MO Center= -2.9D-17, -2.8D-17, -3.5D-12, r^2= 1.3D+00
   Bfn.  Coefficient  Atom+Function         Bfn.  Coefficient  Atom+Function  
  ----- ------------  ---------------      ----- ------------  ---------------
     1      0.705516  1 Li s                 31     -0.705516  2 Li s          

 Vector    3  Occ=2.000000D+00  E=-1.922693D-01
              MO Center=  4.4D-15,  1.2D-16, -4.2D-14, r^2= 4.8D+00
   Bfn.  Coefficient  Atom+Function         Bfn.  Coefficient  Atom+Function  
  ----- ------------  ---------------      ----- ------------  ---------------
     3      0.306824  1 Li s                 33      0.306824  2 Li s          
     4      0.257983  1 Li s                 34      0.257983  2 Li s          
     2      0.219242  1 Li s                 32      0.219242  2 Li s          

 Vector    4  Occ=0.000000D+00  E= 1.101678D-02
              MO Center= -5.8D-15,  1.5D-16,  1.1D-14, r^2= 2.0D+01
   Bfn.  Coefficient  Atom+Function         Bfn.  Coefficient  Atom+Function  
  ----- ------------  ---------------      ----- ------------  ---------------
     4      2.075473  1 Li s                 34     -2.075473  2 Li s          
    13      0.986633  1 Li pz                43      0.986633  2 Li pz         
    10      0.435168  1 Li pz                40      0.435168  2 Li pz         

 Vector    5  Occ=0.000000D+00  E= 2.447956D-02
              MO Center= -1.5D-14, -2.8D-14,  3.0D-13, r^2= 1.5D+01
   Bfn.  Coefficient  Atom+Function         Bfn.  Coefficient  Atom+Function  
  ----- ------------  ---------------      ----- ------------  ---------------
    12      0.415712  1 Li py                42      0.415712  2 Li py         
    11      0.209551  1 Li px                41      0.209551  2 Li px         

 Vector    6  Occ=0.000000D+00  E= 2.447956D-02
              MO Center= -1.5D-14,  6.8D-15,  2.7D-13, r^2= 1.5D+01
   Bfn.  Coefficient  Atom+Function         Bfn.  Coefficient  Atom+Function  
  ----- ------------  ---------------      ----- ------------  ---------------
    11      0.415712  1 Li px                41      0.415712  2 Li px         
    12     -0.209551  1 Li py                42     -0.209551  2 Li py         

 Vector    7  Occ=0.000000D+00  E= 4.105718D-02
              MO Center=  1.4D-14,  1.9D-14, -1.8D-12, r^2= 2.5D+01
   Bfn.  Coefficient  Atom+Function         Bfn.  Coefficient  Atom+Function  
  ----- ------------  ---------------      ----- ------------  ---------------
    13      1.234527  1 Li pz                43     -1.234527  2 Li pz         
     4     -0.749945  1 Li s                 34     -0.749945  2 Li s          
     3      0.382089  1 Li s                 33      0.382089  2 Li s          
    10     -0.167829  1 Li pz                40      0.167829  2 Li pz         

 Vector    8  Occ=0.000000D+00  E= 5.761921D-02
              MO Center=  1.1D-14, -1.3D-14, -1.5D-13, r^2= 2.7D+01
   Bfn.  Coefficient  Atom+Function         Bfn.  Coefficient  Atom+Function  
  ----- ------------  ---------------      ----- ------------  ---------------
    12      1.561331  1 Li py                42     -1.561331  2 Li py         
    11     -1.362670  1 Li px                41      1.362670  2 Li px         
     9     -0.387252  1 Li py                39      0.387252  2 Li py         
     8      0.337979  1 Li px                38     -0.337979  2 Li px         

 Vector    9  Occ=0.000000D+00  E= 5.761921D-02
              MO Center=  6.9D-15,  6.6D-15, -1.7D-13, r^2= 2.7D+01
   Bfn.  Coefficient  Atom+Function         Bfn.  Coefficient  Atom+Function  
  ----- ------------  ---------------      ----- ------------  ---------------
    11      1.561331  1 Li px                41     -1.561331  2 Li px         
    12      1.362670  1 Li py                42     -1.362670  2 Li py         
     8     -0.387252  1 Li px                38      0.387252  2 Li px         
     9     -0.337979  1 Li py                39      0.337979  2 Li py         

 Vector   10  Occ=0.000000D+00  E= 6.670381D-02
              MO Center= -1.7D-14,  7.2D-15,  2.9D-12, r^2= 3.0D+01
   Bfn.  Coefficient  Atom+Function         Bfn.  Coefficient  Atom+Function  
  ----- ------------  ---------------      ----- ------------  ---------------
     4      9.668487  1 Li s                 34     -9.668487  2 Li s          
    13      2.552581  1 Li pz                43      2.552581  2 Li pz         
    10      1.526774  1 Li pz                40      1.526774  2 Li pz         
     3      0.816059  1 Li s                 33     -0.816059  2 Li s          
    21      0.359950  1 Li d  0              51     -0.359950  2 Li d  0       

 Vector   11  Occ=0.000000D+00  E= 1.080340D-01
              MO Center= -1.9D-13,  2.3D-13, -1.3D-12, r^2= 1.7D+01
   Bfn.  Coefficient  Atom+Function         Bfn.  Coefficient  Atom+Function  
  ----- ------------  ---------------      ----- ------------  ---------------
     3      1.257749  1 Li s                 33      1.257749  2 Li s          
    13     -1.193982  1 Li pz                43      1.193982  2 Li pz         
     4     -0.764025  1 Li s                 34     -0.764025  2 Li s          
    21     -0.420350  1 Li d  0              51     -0.420350  2 Li d  0       
     7      0.152311  1 Li pz                37     -0.152311  2 Li pz         

 Vector   12  Occ=0.000000D+00  E= 1.084103D-01
              MO Center=  2.4D-13, -1.0D-13,  1.8D-13, r^2= 1.6D+01
   Bfn.  Coefficient  Atom+Function         Bfn.  Coefficient  Atom+Function  
  ----- ------------  ---------------      ----- ------------  ---------------
     8      0.728311  1 Li px                38      0.728311  2 Li px         
    11     -0.605593  1 Li px                41     -0.605593  2 Li px         
     9     -0.310103  1 Li py                39     -0.310103  2 Li py         
    12      0.257851  1 Li py                42      0.257851  2 Li py         

 Vector   13  Occ=0.000000D+00  E= 1.084103D-01
              MO Center= -5.2D-14, -1.2D-13,  1.8D-13, r^2= 1.6D+01
   Bfn.  Coefficient  Atom+Function         Bfn.  Coefficient  Atom+Function  
  ----- ------------  ---------------      ----- ------------  ---------------
     9      0.728311  1 Li py                39      0.728311  2 Li py         
    12     -0.605593  1 Li py                42     -0.605593  2 Li py         
     8      0.310103  1 Li px                38      0.310103  2 Li px         
    11     -0.257851  1 Li px                41     -0.257851  2 Li px         

 Vector   14  Occ=0.000000D+00  E= 1.438055D-01
              MO Center= -1.1D-15, -9.4D-16,  9.7D-12, r^2= 1.3D+01
   Bfn.  Coefficient  Atom+Function         Bfn.  Coefficient  Atom+Function  
  ----- ------------  ---------------      ----- ------------  ---------------
     3      1.544058  1 Li s                 33      1.544058  2 Li s          
    10     -1.223952  1 Li pz                40      1.223952  2 Li pz         
     4     -1.101195  1 Li s                 34     -1.101195  2 Li s          
    13      0.619298  1 Li pz                43     -0.619298  2 Li pz         
    21     -0.295593  1 Li d  0              51     -0.295593  2 Li d  0       

 Vector   15  Occ=0.000000D+00  E= 1.626792D-01
              MO Center= -1.1D-15, -8.0D-16, -1.0D-11, r^2= 2.0D+01
   Bfn.  Coefficient  Atom+Function         Bfn.  Coefficient  Atom+Function  
  ----- ------------  ---------------      ----- ------------  ---------------
     4     15.783201  1 Li s                 34    -15.783201  2 Li s          
    10      5.841123  1 Li pz                40      5.841123  2 Li pz         
     3      3.076258  1 Li s                 33     -3.076258  2 Li s          
    13      2.439834  1 Li pz                43      2.439834  2 Li pz         
    21      0.801587  1 Li d  0              51     -0.801587  2 Li d  0       

 Vector   16  Occ=0.000000D+00  E= 1.705342D-01
              MO Center= -4.9D-16,  5.7D-16, -2.3D-13, r^2= 1.4D+01
   Bfn.  Coefficient  Atom+Function         Bfn.  Coefficient  Atom+Function  
  ----- ------------  ---------------      ----- ------------  ---------------
     9      1.869918  1 Li py                39     -1.869918  2 Li py         
    12     -1.433034  1 Li py                42      1.433034  2 Li py         
     8      0.688346  1 Li px                38     -0.688346  2 Li px         
    11     -0.527522  1 Li px                41      0.527522  2 Li px         
    20      0.246491  1 Li d -1              50      0.246491  2 Li d -1       

 Vector   17  Occ=0.000000D+00  E= 1.705342D-01
              MO Center=  8.9D-16,  1.3D-16, -2.3D-13, r^2= 1.4D+01
   Bfn.  Coefficient  Atom+Function         Bfn.  Coefficient  Atom+Function  
  ----- ------------  ---------------      ----- ------------  ---------------
     8      1.869918  1 Li px                38     -1.869918  2 Li px         
    11     -1.433034  1 Li px                41      1.433034  2 Li px         
     9     -0.688346  1 Li py                39      0.688346  2 Li py         
    12      0.527522  1 Li py                42     -0.527522  2 Li py         
    22     -0.246491  1 Li d  1              52     -0.246491  2 Li d  1       

 Vector   18  Occ=0.000000D+00  E= 2.163742D-01
              MO Center=  9.1D-16, -2.2D-16,  1.2D-13, r^2= 7.7D+00
   Bfn.  Coefficient  Atom+Function         Bfn.  Coefficient  Atom+Function  
  ----- ------------  ---------------      ----- ------------  ---------------
    23      0.602776  1 Li d  2              53      0.602776  2 Li d  2       
    19      0.285865  1 Li d -2              49      0.285865  2 Li d -2       

 Vector   19  Occ=0.000000D+00  E= 2.163742D-01
              MO Center=  6.1D-16,  1.0D-15,  1.2D-13, r^2= 7.7D+00
   Bfn.  Coefficient  Atom+Function         Bfn.  Coefficient  Atom+Function  
  ----- ------------  ---------------      ----- ------------  ---------------
    19      0.602776  1 Li d -2              49      0.602776  2 Li d -2       
    23     -0.285865  1 Li d  2              53     -0.285865  2 Li d  2       

 Vector   20  Occ=0.000000D+00  E= 2.612305D-01
              MO Center= -8.3D-16, -5.8D-17,  1.2D-12, r^2= 1.2D+01
   Bfn.  Coefficient  Atom+Function         Bfn.  Coefficient  Atom+Function  
  ----- ------------  ---------------      ----- ------------  ---------------
     4      4.333620  1 Li s                 34     -4.333620  2 Li s          
     3     -1.105264  1 Li s                 13      1.106632  1 Li pz         
    33      1.105264  2 Li s                 43      1.106632  2 Li pz         
    21      0.799315  1 Li d  0              51     -0.799315  2 Li d  0       
     2     -0.308572  1 Li s                 32      0.308572  2 Li s          

 Vector   21  Occ=0.000000D+00  E= 2.701066D-01
              MO Center=  6.5D-17,  5.0D-16, -1.2D-13, r^2= 9.8D+00
   Bfn.  Coefficient  Atom+Function         Bfn.  Coefficient  Atom+Function  
  ----- ------------  ---------------      ----- ------------  ---------------
    22      0.697766  1 Li d  1              52     -0.697766  2 Li d  1       
    20     -0.520990  1 Li d -1              50      0.520990  2 Li d -1       
     8      0.370438  1 Li px                38      0.370438  2 Li px         
     9      0.276589  1 Li py                39      0.276589  2 Li py         
    11     -0.164903  1 Li px                41     -0.164903  2 Li px         

 Vector   22  Occ=0.000000D+00  E= 2.701066D-01
              MO Center=  2.6D-15, -4.2D-15, -1.2D-13, r^2= 9.8D+00
   Bfn.  Coefficient  Atom+Function         Bfn.  Coefficient  Atom+Function  
  ----- ------------  ---------------      ----- ------------  ---------------
    20      0.697766  1 Li d -1              50     -0.697766  2 Li d -1       
    22      0.520990  1 Li d  1              52     -0.520990  2 Li d  1       
     9     -0.370438  1 Li py                39     -0.370438  2 Li py         
     8      0.276589  1 Li px                38      0.276589  2 Li px         
    12      0.164903  1 Li py                42      0.164903  2 Li py         

 Vector   23  Occ=0.000000D+00  E= 2.891064D-01
              MO Center= -2.9D-15, -7.7D-15, -1.1D-13, r^2= 9.5D+00
   Bfn.  Coefficient  Atom+Function         Bfn.  Coefficient  Atom+Function  
  ----- ------------  ---------------      ----- ------------  ---------------
    19      1.190684  1 Li d -2              49     -1.190684  2 Li d -2       
    14     -0.195270  1 Li d -2              44      0.195270  2 Li d -2       
    23     -0.168790  1 Li d  2              53      0.168790  2 Li d  2       

 Vector   24  Occ=0.000000D+00  E= 2.891064D-01
              MO Center= -3.1D-15, -5.2D-16, -1.1D-13, r^2= 9.5D+00
   Bfn.  Coefficient  Atom+Function         Bfn.  Coefficient  Atom+Function  
  ----- ------------  ---------------      ----- ------------  ---------------
    23      1.190684  1 Li d  2              53     -1.190684  2 Li d  2       
    18     -0.195270  1 Li d  2              48      0.195270  2 Li d  2       
    19      0.168790  1 Li d -2              49     -0.168790  2 Li d -2       

 Vector   25  Occ=0.000000D+00  E= 3.227108D-01
              MO Center= -1.0D-15, -1.4D-15, -1.0D-12, r^2= 1.0D+01
   Bfn.  Coefficient  Atom+Function         Bfn.  Coefficient  Atom+Function  
  ----- ------------  ---------------      ----- ------------  ---------------
     3      1.463866  1 Li s                 33      1.463866  2 Li s          
    21     -1.437702  1 Li d  0              51     -1.437702  2 Li d  0       
     4     -0.716331  1 Li s                 13     -0.717859  1 Li pz         
    34     -0.716331  2 Li s                 43      0.717859  2 Li pz         
    10     -0.496350  1 Li pz                40      0.496350  2 Li pz         

 Vector   26  Occ=0.000000D+00  E= 3.623822D-01
              MO Center=  4.8D-15,  2.2D-15,  6.6D-14, r^2= 1.2D+01
   Bfn.  Coefficient  Atom+Function         Bfn.  Coefficient  Atom+Function  
  ----- ------------  ---------------      ----- ------------  ---------------
     9      4.842112  1 Li py                39     -4.842112  2 Li py         
    20      3.045161  1 Li d -1              50      3.045161  2 Li d -1       
    12     -0.811140  1 Li py                42      0.811140  2 Li py         
     8      0.392562  1 Li px                38     -0.392562  2 Li px         
    22     -0.246879  1 Li d  1              52     -0.246879  2 Li d  1       

 Vector   27  Occ=0.000000D+00  E= 3.623822D-01
              MO Center=  3.4D-15,  5.7D-15,  4.0D-14, r^2= 1.2D+01
   Bfn.  Coefficient  Atom+Function         Bfn.  Coefficient  Atom+Function  
  ----- ------------  ---------------      ----- ------------  ---------------
     8      4.842112  1 Li px                38     -4.842112  2 Li px         
    22     -3.045161  1 Li d  1              52     -3.045161  2 Li d  1       
    11     -0.811140  1 Li px                41      0.811140  2 Li px         
     9     -0.392562  1 Li py                39      0.392562  2 Li py         
    20     -0.246879  1 Li d -1              50     -0.246879  2 Li d -1       

 Vector   28  Occ=0.000000D+00  E= 3.985735D-01
              MO Center= -5.6D-16, -1.3D-16,  4.4D-12, r^2= 1.2D+01
   Bfn.  Coefficient  Atom+Function         Bfn.  Coefficient  Atom+Function  
  ----- ------------  ---------------      ----- ------------  ---------------
     4     12.438617  1 Li s                 34    -12.438617  2 Li s          
     3      8.362144  1 Li s                 33     -8.362144  2 Li s          
    10      8.168300  1 Li pz                40      8.168300  2 Li pz         
    21      1.962946  1 Li d  0              51     -1.962946  2 Li d  0       
    13      1.484924  1 Li pz                43      1.484924  2 Li pz         

 Vector   29  Occ=0.000000D+00  E= 4.539200D-01
              MO Center=  2.8D-15, -2.6D-15,  6.4D-13, r^2= 6.0D+00
   Bfn.  Coefficient  Atom+Function         Bfn.  Coefficient  Atom+Function  
  ----- ------------  ---------------      ----- ------------  ---------------
     5      0.897542  1 Li px                35      0.897542  2 Li px         
     8     -0.804651  1 Li px                38     -0.804651  2 Li px         
    11      0.316204  1 Li px                41      0.316204  2 Li px         
     6     -0.237092  1 Li py                36     -0.237092  2 Li py         
     9      0.212554  1 Li py                39      0.212554  2 Li py         

 Vector   30  Occ=0.000000D+00  E= 4.539200D-01
              MO Center=  2.6D-15,  1.4D-14,  5.8D-13, r^2= 6.0D+00
   Bfn.  Coefficient  Atom+Function         Bfn.  Coefficient  Atom+Function  
  ----- ------------  ---------------      ----- ------------  ---------------
     6      0.897542  1 Li py                36      0.897542  2 Li py         
     9     -0.804651  1 Li py                39     -0.804651  2 Li py         
    12      0.316204  1 Li py                42      0.316204  2 Li py         
     5      0.237092  1 Li px                35      0.237092  2 Li px         
     8     -0.212554  1 Li px                38     -0.212554  2 Li px         

 Vector   31  Occ=0.000000D+00  E= 4.654787D-01
              MO Center= -8.2D-15, -8.8D-15, -4.0D-12, r^2= 9.0D+00
   Bfn.  Coefficient  Atom+Function         Bfn.  Coefficient  Atom+Function  
  ----- ------------  ---------------      ----- ------------  ---------------
    10      2.369108  1 Li pz                40     -2.369108  2 Li pz         
     3     -1.801917  1 Li s                 33     -1.801917  2 Li s          
    21      1.441598  1 Li d  0              51      1.441598  2 Li d  0       
     4      1.049852  1 Li s                 34      1.049852  2 Li s          
     7     -1.024764  1 Li pz                37      1.024764  2 Li pz         

 Vector   32  Occ=0.000000D+00  E= 4.682445D-01
              MO Center= -3.5D-16, -1.0D-15, -6.0D-13, r^2= 7.3D+00
   Bfn.  Coefficient  Atom+Function         Bfn.  Coefficient  Atom+Function  
  ----- ------------  ---------------      ----- ------------  ---------------
    11      0.547406  1 Li px                41     -0.547406  2 Li px         
    22     -0.509901  1 Li d  1              52     -0.509901  2 Li d  1       
    12     -0.485621  1 Li py                42      0.485621  2 Li py         
     5      0.482968  1 Li px                35     -0.482968  2 Li px         
    20     -0.452350  1 Li d -1              50     -0.452350  2 Li d -1       

 Vector   33  Occ=0.000000D+00  E= 4.682445D-01
              MO Center=  6.5D-16,  7.5D-16, -5.7D-13, r^2= 7.3D+00
   Bfn.  Coefficient  Atom+Function         Bfn.  Coefficient  Atom+Function  
  ----- ------------  ---------------      ----- ------------  ---------------
    12      0.547406  1 Li py                42     -0.547406  2 Li py         
    20      0.509901  1 Li d -1              50      0.509901  2 Li d -1       
    11      0.485621  1 Li px                41     -0.485621  2 Li px         
     6      0.482968  1 Li py                36     -0.482968  2 Li py         
    22     -0.452350  1 Li d  1              52     -0.452350  2 Li d  1       

 Vector   34  Occ=0.000000D+00  E= 6.461738D-01
              MO Center=  4.7D-16,  1.5D-16,  8.5D-14, r^2= 5.7D+00
   Bfn.  Coefficient  Atom+Function         Bfn.  Coefficient  Atom+Function  
  ----- ------------  ---------------      ----- ------------  ---------------
     4      6.592607  1 Li s                 34     -6.592607  2 Li s          
     3      3.785032  1 Li s                 33     -3.785032  2 Li s          
    10      3.481536  1 Li pz                40      3.481536  2 Li pz         
    21      1.552370  1 Li d  0              51     -1.552370  2 Li d  0       
    16     -1.035636  1 Li d  0              46      1.035636  2 Li d  0       


 center of mass
 --------------
 x =   0.00000000 y =   0.00000000 z =   0.00000000

 moments of inertia (a.u.)
 ------------------
          57.284238962195           0.000000000000           0.000000000000
           0.000000000000          57.284238962195           0.000000000000
           0.000000000000           0.000000000000           0.000000000000

  Mulliken analysis of the total density
  --------------------------------------

    Atom       Charge   Shell Charges
 -----------   ------   -------------------------------------------------------
    1 Li   3     3.00   2.00 -0.02  0.49  0.45  0.04  0.05  0.01  0.00  0.00  0.00
    2 Li   3     3.00   2.00 -0.02  0.49  0.45  0.04  0.05  0.01  0.00  0.00  0.00

       Multipole analysis of the density wrt the origin
       ------------------------------------------------

     L   x y z        total         open         nuclear
     -   - - -        -----         ----         -------
     0   0 0 0     -0.000000      0.000000      6.000000

     1   1 0 0     -0.000000      0.000000      0.000000
     1   0 1 0     -0.000000      0.000000      0.000000
     1   0 0 1      0.000000      0.000000      0.000000

     2   2 0 0    -11.920418      0.000000      0.000000
     2   1 1 0      0.000000      0.000000      0.000000
     2   1 0 1      0.000000      0.000000      0.000000
     2   0 2 0    -11.920418      0.000000      0.000000
     2   0 1 1      0.000000      0.000000      0.000000
     2   0 0 2     -3.957903      0.000000     24.494401


 Parallel integral file used       9 records with       0 large values

                   NWChem Extensible Many-Electron Theory Module
                   ---------------------------------------------

              ======================================================
                   This portion of the program was automatically
                  generated by a Tensor Contraction Engine (TCE).
                  The development of this portion of the program
                 and TCE was supported by US Department of Energy,
                Office of Science, Office of Basic Energy Science.
                      TCE is a product of Battelle and PNNL.
              Please cite: S.Hirata, J.Phys.Chem.A 107, 9887 (2003).
              ======================================================

                                    Li2-REMOVE


            General Information
            -------------------
      Number of processors :     1
         Wavefunction type : Restricted Hartree-Fock
          No. of electrons :     6
           Alpha electrons :     3
            Beta electrons :     3
           No. of orbitals :   120
            Alpha orbitals :    60
             Beta orbitals :    60
        Alpha frozen cores :     0
         Beta frozen cores :     0
     Alpha frozen virtuals :     0
      Beta frozen virtuals :     0
         Spin multiplicity : singlet 
    Number of AO functions :    60
       Number of AO shells :    20
        Use of symmetry is : off
      Symmetry adaption is : off
         Schwarz screening : 0.10D-09

          Correlation Information
          -----------------------
          Calculation type : Coupled-cluster singles & doubles                           
   Perturbative correction : none                                                        
            Max iterations :      200
        Residual threshold : 0.10D-05
     T(0) DIIS level shift : 0.00D+00
     L(0) DIIS level shift : 0.00D+00
     T(1) DIIS level shift : 0.00D+00
     L(1) DIIS level shift : 0.00D+00
     T(R) DIIS level shift : 0.00D+00
     T(I) DIIS level shift : 0.00D+00
   CC-T/L Amplitude update :  5-th order DIIS
                I/O scheme : Global Array Library
        L-threshold :  0.10D-05
        EOM-threshold :  0.10D-05
 no EOMCCSD initial starts read in
 TCE RESTART OPTIONS
 READ_INT:   F
 WRITE_INT:  F
 READ_TA:    F
 WRITE_TA:   F
 READ_XA:    F
 WRITE_XA:   F
 READ_IN3:   F
 WRITE_IN3:  F
 SLICE:      F
 D4D5:       F
 quantumc:   F
 qrotation:  F
 qducc:      T
 nacto:                         0
 nrotv:                         0
 nrot:                          0

            Memory Information
            ------------------
          Available GA space size is    1610609136 doubles
          Available MA space size is    1610610012 doubles

 Maximum block size supplied by input
 Maximum block size         5 doubles

 tile_dim =      5

 Block   Spin    Irrep     Size     Offset   Alpha
 -------------------------------------------------
   1    alpha     a      3 doubles       0       1
   2    beta      a      3 doubles       3       1
   3    alpha     a      4 doubles       6       3
   4    alpha     a      5 doubles      10       4
   5    alpha     a      5 doubles      15       5
   6    alpha     a      5 doubles      20       6
   7    alpha     a      4 doubles      25       7
   8    alpha     a      5 doubles      29       8
   9    alpha     a      5 doubles      34       9
  10    alpha     a      5 doubles      39      10
  11    alpha     a      4 doubles      44      11
  12    alpha     a      5 doubles      48      12
  13    alpha     a      5 doubles      53      13
  14    alpha     a      5 doubles      58      14
  15    beta      a      4 doubles      63       3
  16    beta      a      5 doubles      67       4
  17    beta      a      5 doubles      72       5
  18    beta      a      5 doubles      77       6
  19    beta      a      4 doubles      82       7
  20    beta      a      5 doubles      86       8
  21    beta      a      5 doubles      91       9
  22    beta      a      5 doubles      96      10
  23    beta      a      4 doubles     101      11
  24    beta      a      5 doubles     105      12
  25    beta      a      5 doubles     110      13
  26    beta      a      5 doubles     115      14

 Global array virtual files algorithm will be used

 Parallel file system coherency ......... OK

 Integral file          = ./Li2-REMOVE.aoints.0
 Record size in doubles =    65536    No. of integs per rec  =    43688
 Max. records in memory =       54    Max. records in file   =  1545292
 No. of bits per label  =        8    No. of bits per value  =       64


 #quartets = 2.216D+04 #integrals = 3.711D+05 #direct =  0.0% #cached =100.0%


 Fock matrix recomputed
 1-e file size   =             3600
 1-e file name   = ./Li2-REMOVE.f1
 Cpu & wall time / sec            0.3            0.3
 4-electron integrals stored in orbital form

 v2    file size   =          1905240
 4-index algorithm nr.  13 is used
 imaxsize =       30
 imaxsize ichop =        0
 Cpu & wall time / sec            4.8            4.9
 T1-number-of-tasks                   12

 t1 file size   =              171
 t1 file name   = ./Li2-REMOVE.t1
 t1 file handle =       -998
 T2-number-of-boxes                  222

 t2 file size   =            45090
 t2 file name   = ./Li2-REMOVE.t2
 t2 file handle =       -996

 CCSD iterations
 -----------------------------------------------------------------
 Iter          Residuum       Correlation     Cpu    Wall    V2*C2
 -----------------------------------------------------------------
    1   0.0915856396305  -0.0478937494927     1.9     2.0     0.6
    2   0.0291419318386  -0.0570812524944     1.8     2.0     0.5
    3   0.0161769124003  -0.0606200525715     1.8     2.0     0.5
    4   0.0100155428771  -0.0623000836258     1.8     1.9     0.5
    5   0.0063946234183  -0.0632404857288     1.9     2.0     0.6
 MICROCYCLE DIIS UPDATE:                    5                    5
    6   0.0008911077174  -0.0646934370868     1.8     2.0     0.6
    7   0.0004687032275  -0.0646896806446     1.8     1.9     0.5
    8   0.0002940436346  -0.0646950598820     1.9     2.0     0.6
    9   0.0001953908700  -0.0646994846733     1.8     2.0     0.5
   10   0.0001324574605  -0.0647033737878     1.8     2.0     0.6
 MICROCYCLE DIIS UPDATE:                   10                    5
   11   0.0000222561908  -0.0647126645077     1.8     2.0     0.5
   12   0.0000105483800  -0.0647146404498     1.8     1.9     0.5
   13   0.0000060193000  -0.0647156625394     1.8     2.0     0.5
   14   0.0000035775646  -0.0647161935339     1.8     2.0     0.6
   15   0.0000021939067  -0.0647164932713     1.8     2.0     0.5
 MICROCYCLE DIIS UPDATE:                   15                    5
   16   0.0000004639282  -0.0647169194499     1.8     2.0     0.5
 -----------------------------------------------------------------
 Iterations converged
 CCSD correlation energy / hartree =        -0.064716919449889
 CCSD total energy / hartree       =       -14.919020121651934

 Singles contributions

 Doubles contributions
     5a   (alpha)     5a   (beta ) ---     3a   (alpha)     3a   (beta )       -0.1168180734
     6a   (alpha)     6a   (beta ) ---     3a   (alpha)     3a   (beta )       -0.1168180734
 Ground state specification:
 exp(T)|Ref>~(1+T)|Ref>
 ------- a(p)+/a(q) strings ----------

 singles norm

 doubles norm

 Reference string
  0.98662667141101035      :(1a)+ (2a)+ (3a)+ (1b)+ (2b)+ (3b)+ |0>

 Singles strings

 Doubles strings
 -0.11525582688183272      :(5a)+ (5b)+ (3b)  (3a)  (1a)+ (2a)+ (3a)+ (1b)+ (2b)+ (3b)+ |0>
 -0.11525582688183360      :(6a)+ (6b)+ (3b)  (3a)  (1a)+ (2a)+ (3a)+ (1b)+ (2b)+ (3b)+ |0>
 -------------------------------------
 enrep_tce =    2.2271769739044536     
  EHF(total)         =       -14.85430320
  Shift (HFtot-HFA)  =         0.00000000
 ALL OCCUPIED ORBITALS ARE ACTIVE IN DUCC --> NO SHIFT
 Number of active orbitals                   10
 Number of active alpha electrons                    3
 Number of active beta electrons                    3
  nos                     6
  nvs                   114
 noas                     3
 nobs                     3
 nvas                    57
 nvbs                    57
 nactv                     7
 From DUCC CCSD corr. ene.  -6.4716919449833016E-002
 From DUCC CCSD corr. ene.-e-part   8.6705360219766908E-002
 begin_one_electron_integrals
    1    1        -5.1828934491
    1    3         0.1407077631
    1    7         0.0190184840
    2    2        -5.1827327513
    2    4        -0.0615162416
    2   10         0.0722343211
    3    1         0.1407077631
    3    3        -1.6283591310
    3    7        -0.1843515941
    4    2        -0.0615162416
    4    4        -0.8719011305
    4   10         0.3057093729
    5    5        -0.9417922937
    6    6        -0.9417922937
    7    1         0.0190184840
    7    3        -0.1843515941
    7    7        -0.7521216351
    8    8        -0.6196786760
    9    9        -0.6196786760
   10    2         0.0722343211
   10    4         0.3057093729
   10   10        -0.7545148314
 end_one_electron_integrals
 begin_two_electron_integrals
    1    1    1    1        0.9391880557
    2    2    1    1        0.9408432990
    2    1    2    1        0.6933856229
    2    2    2    2        0.9421814781
    3    1    1    1       -0.0713735344
    3    3    1    1        0.3022669621
    3    1    2    2       -0.0716609654
    3    2    2    1       -0.0756286165
    3    3    2    2        0.3020504607
    3    1    3    1        0.0083342035
    3    2    3    2        0.0084255150
    3    3    3    1       -0.0019014084
    3    3    3    3        0.2474952225
    4    2    1    1        0.0289807453
    4    4    1    1        0.1558693998
    4    1    2    1        0.0269006079
    4    2    2    2        0.0290424579
    4    3    2    1       -0.0341467694
    4    4    2    2        0.1559114431
    4    1    3    2       -0.0040159463
    4    2    3    1       -0.0039463176
    4    2    3    3        0.0027551083
    4    3    3    2        0.0018995126
    4    4    3    1       -0.0008513248
    4    4    3    3        0.1391331681
    4    1    4    1        0.0020368323
    4    2    4    2        0.0020797548
    4    3    4    1       -0.0000356447
    4    3    4    3        0.0148250355
    4    4    4    2       -0.0001375350
    4    4    4    4        0.1275589742
    5    5    1    1        0.1681910833
    5    5    2    2        0.1681674417
    5    5    3    1        0.0003801669
    5    5    3    3        0.1592051867
    5    5    4    2        0.0003029225
    5    5    4    4        0.1152849931
    5    1    5    1        0.0006394970
    5    2    5    2        0.0005536693
    5    3    5    1        0.0016943716
    5    3    5    3        0.0324338707
    5    4    5    2       -0.0004646161
    5    4    5    4        0.0070033344
    5    5    5    5        0.1382672704
    6    6    1    1        0.1681910833
    6    6    2    2        0.1681674417
    6    6    3    1        0.0003801669
    6    6    3    3        0.1592051867
    6    6    4    2        0.0003029225
    6    6    4    4        0.1152849931
    6    6    5    5        0.1239970463
    6    1    6    1        0.0006394970
    6    2    6    2        0.0005536693
    6    3    6    1        0.0016943716
    6    3    6    3        0.0324338707
    6    4    6    2       -0.0004646161
    6    4    6    4        0.0070033344
    6    5    6    5        0.0071351120
    6    6    6    6        0.1382672704
    7    1    1    1       -0.0130383175
    7    3    1    1        0.0395613405
    7    7    1    1        0.1383145705
    7    1    2    2       -0.0131263242
    7    2    2    1       -0.0166547996
    7    3    2    2        0.0394623825
    7    4    2    1        0.0228840867
    7    7    2    2        0.1383037567
    7    1    3    1        0.0027552699
    7    1    3    3        0.0015669055
    7    2    3    2        0.0026701229
    7    3    3    1        0.0002776259
    7    3    3    3        0.0256760787
    7    4    3    2       -0.0007491559
    7    7    3    1       -0.0001133709
    7    7    3    3        0.1266019659
    7    1    4    2       -0.0006322245
    7    1    4    4       -0.0005428154
    7    2    4    1       -0.0006991223
    7    2    4    3        0.0010768321
    7    3    4    2        0.0010423056
    7    3    4    4        0.0002673941
    7    4    4    1       -0.0005564547
    7    4    4    3       -0.0188935106
    7    7    4    2        0.0001641657
    7    7    4    4        0.1212438986
    7    1    5    5        0.0004012921
    7    3    5    5        0.0113514215
    7    5    5    1        0.0001813713
    7    5    5    3        0.0002022218
    7    7    5    5        0.1055343005
    7    1    6    6        0.0004012921
    7    3    6    6        0.0113514215
    7    6    6    1        0.0001813713
    7    6    6    3        0.0002022218
    7    7    6    6        0.1055343005
    7    1    7    1        0.0011882825
    7    2    7    2        0.0010763208
    7    3    7    1        0.0010124916
    7    3    7    3        0.0150695627
    7    4    7    2       -0.0007693099
    7    4    7    4        0.0429074605
    7    5    7    5        0.0032863265
    7    6    7    6        0.0032863265
    7    7    7    1        0.0000585030
    7    7    7    3        0.0008180213
    7    7    7    7        0.1219392346
    8    8    1    1        0.1142062974
    8    5    2    1        0.0063950617
    8    6    2    1       -0.0157214181
    8    8    2    2        0.1142117745
    8    5    3    2       -0.0001833197
    8    6    3    2        0.0004506675
    8    8    3    1       -0.0000842848
    8    8    3    3        0.1115780033
    8    5    4    1       -0.0000872089
    8    5    4    3       -0.0043435846
    8    6    4    1        0.0002143917
    8    6    4    3        0.0106781314
    8    8    4    2       -0.0000272271
    8    8    4    4        0.1049235505
    8    1    5    2        0.0000774775
    8    1    5    4       -0.0000605021
    8    2    5    1        0.0000845634
    8    2    5    3        0.0001779912
    8    3    5    2        0.0001323114
    8    3    5    4       -0.0014042269
    8    4    5    1       -0.0002009710
    8    4    5    3       -0.0039700958
    8    7    5    2       -0.0000417344
    8    7    5    4        0.0025392609
    8    8    5    5        0.1003722515
    8    1    6    2       -0.0001904684
    8    1    6    4        0.0001487365
    8    2    6    1       -0.0002078881
    8    2    6    3       -0.0004375679
    8    3    6    2       -0.0003252702
    8    3    6    4        0.0034521071
    8    4    6    1        0.0004940608
    8    4    6    3        0.0097599582
    8    7    6    2        0.0001025985
    8    7    6    4       -0.0062424389
    8    8    6    5       -0.0029618896
    8    8    6    6        0.1064488482
    8    2    7    5        0.0000153982
    8    2    7    6       -0.0000378544
    8    4    7    5        0.0020290479
    8    4    7    6       -0.0049881475
    8    5    7    2       -0.0001520813
    8    5    7    4        0.0076648924
    8    6    7    2        0.0003738719
    8    6    7    4       -0.0188431299
    8    8    7    1       -0.0000558861
    8    8    7    3        0.0003269070
    8    8    7    7        0.1012694062
    8    1    8    1        0.0000638570
    8    2    8    2        0.0000683451
    8    3    8    1        0.0001456637
    8    3    8    3        0.0037302664
    8    4    8    2       -0.0001731353
    8    4    8    4        0.0151936823
    8    5    8    5        0.0043833477
    8    6    8    5       -0.0050693559
    8    6    8    6        0.0147836111
    8    7    8    1       -0.0000408935
    8    7    8    3       -0.0034705982
    8    7    8    7        0.0100421548
    8    8    8    8        0.1036160021
    9    9    1    1        0.1142062974
    9    5    2    1        0.0157214181
    9    6    2    1        0.0063950617
    9    9    2    2        0.1142117745
    9    5    3    2       -0.0004506675
    9    6    3    2       -0.0001833197
    9    9    3    1       -0.0000842848
    9    9    3    3        0.1115780033
    9    5    4    1       -0.0002143917
    9    5    4    3       -0.0106781314
    9    6    4    1       -0.0000872089
    9    6    4    3       -0.0043435846
    9    9    4    2       -0.0000272271
    9    9    4    4        0.1049235505
    9    1    5    2        0.0001904684
    9    1    5    4       -0.0001487365
    9    2    5    1        0.0002078881
    9    2    5    3        0.0004375679
    9    3    5    2        0.0003252702
    9    3    5    4       -0.0034521071
    9    4    5    1       -0.0004940608
    9    4    5    3       -0.0097599582
    9    7    5    2       -0.0001025985
    9    7    5    4        0.0062424389
    9    8    5    5        0.0029618896
    9    9    5    5        0.1064488482
    9    1    6    2        0.0000774775
    9    1    6    4       -0.0000605021
    9    2    6    1        0.0000845634
    9    2    6    3        0.0001779912
    9    3    6    2        0.0001323114
    9    3    6    4       -0.0014042269
    9    4    6    1       -0.0002009710
    9    4    6    3       -0.0039700958
    9    7    6    2       -0.0000417344
    9    7    6    4        0.0025392609
    9    8    6    5       -0.0030382984
    9    8    6    6       -0.0029618896
    9    9    6    5        0.0029618896
    9    9    6    6        0.1003722515
    9    2    7    5        0.0000378544
    9    2    7    6        0.0000153982
    9    4    7    5        0.0049881475
    9    4    7    6        0.0020290479
    9    5    7    2       -0.0003738719
    9    5    7    4        0.0188431299
    9    6    7    2       -0.0001520813
    9    6    7    4        0.0076648924
    9    9    7    1       -0.0000558861
    9    9    7    3        0.0003269070
    9    9    7    7        0.1012694062
    9    5    8    5        0.0050693559
    9    5    8    6       -0.0101410785
    9    6    8    5       -0.0002591849
    9    6    8    6       -0.0050693559
    9    9    8    8        0.0927776830
    9    1    9    1        0.0000638570
    9    2    9    2        0.0000683451
    9    3    9    1        0.0001456637
    9    3    9    3        0.0037302664
    9    4    9    2       -0.0001731353
    9    4    9    4        0.0151936823
    9    5    9    5        0.0147836111
    9    6    9    5        0.0050693559
    9    6    9    6        0.0043833477
    9    7    9    1       -0.0000408935
    9    7    9    3       -0.0034705982
    9    7    9    7        0.0100421548
    9    8    9    8        0.0054191596
    9    9    9    9        0.1036160021
   10    2    1    1       -0.0341141897
   10    4    1    1       -0.0589048321
   10   10    1    1        0.1456951856
   10    1    2    1       -0.0317677597
   10    2    2    2       -0.0341892400
   10    3    2    1        0.0348478307
   10    4    2    2       -0.0589374219
   10    7    2    1       -0.0017399525
   10   10    2    2        0.1457352337
   10    1    3    2        0.0047404871
   10    2    3    1        0.0046596763
   10    2    3    3       -0.0030953137
   10    3    3    2       -0.0020197723
   10    4    3    1        0.0007698295
   10    4    3    3       -0.0436624361
   10    7    3    2        0.0000171193
   10   10    3    1       -0.0009262710
   10   10    3    3        0.1277105584
   10    1    4    1       -0.0024253887
   10    1    4    3        0.0000722792
   10    2    4    2       -0.0024761328
   10    2    4    4        0.0001615181
   10    3    4    1        0.0002040709
   10    3    4    3       -0.0109868449
   10    4    4    2        0.0000166952
   10    4    4    4       -0.0212232754
   10    7    4    1        0.0001499768
   10    7    4    3       -0.0017498574
   10   10    4    2       -0.0000244766
   10   10    4    4        0.1137342819
   10    2    5    5       -0.0003090363
   10    4    5    5       -0.0253157354
   10    5    5    2        0.0004639159
   10    5    5    4       -0.0033885085
   10    8    5    1        0.0001042895
   10    8    5    3        0.0010541541
   10    9    5    1        0.0002563819
   10    9    5    3        0.0025914991
   10   10    5    5        0.1052283671
   10    2    6    6       -0.0003090363
   10    4    6    6       -0.0253157354
   10    6    6    2        0.0004639159
   10    6    6    4       -0.0033885085
   10    8    6    1       -0.0002563819
   10    8    6    3       -0.0025914991
   10    9    6    1        0.0001042895
   10    9    6    3        0.0010541541
   10   10    6    6        0.1052283671
   10    1    7    2        0.0008351251
   10    1    7    4        0.0006024754
   10    2    7    1        0.0007567976
   10    2    7    3       -0.0011789379
   10    2    7    7       -0.0001868848
   10    3    7    2       -0.0010489399
   10    3    7    4        0.0119434883
   10    4    7    1        0.0003988533
   10    4    7    3       -0.0038781934
   10    4    7    7       -0.0111936926
   10    7    7    2        0.0001408230
   10    7    7    4        0.0128389883
   10    8    7    5        0.0004598115
   10    8    7    6       -0.0011303860
   10    9    7    5        0.0011303860
   10    9    7    6        0.0004598115
   10   10    7    1       -0.0004869601
   10   10    7    3        0.0016998035
   10   10    7    7        0.1091206644
   10    1    8    5        0.0000970339
   10    1    8    6       -0.0002385451
   10    2    8    8        0.0000440746
   10    3    8    5        0.0031001191
   10    3    8    6       -0.0076212350
   10    4    8    8       -0.0111725479
   10    5    8    1        0.0000601970
   10    5    8    3        0.0008381867
   10    5    8    7       -0.0003330853
   10    6    8    1       -0.0001479864
   10    6    8    3       -0.0020605719
   10    6    8    7        0.0008188465
   10    7    8    5        0.0019351254
   10    7    8    6       -0.0047572512
   10    8    8    2        0.0000939020
   10    8    8    4        0.0015767169
   10   10    8    8        0.0956115901
   10    1    9    5        0.0002385451
   10    1    9    6        0.0000970339
   10    2    9    9        0.0000440746
   10    3    9    5        0.0076212350
   10    3    9    6        0.0031001191
   10    4    9    9       -0.0111725479
   10    5    9    1        0.0001479864
   10    5    9    3        0.0020605719
   10    5    9    7       -0.0008188465
   10    6    9    1        0.0000601970
   10    6    9    3        0.0008381867
   10    6    9    7       -0.0003330853
   10    7    9    5        0.0047572512
   10    7    9    6        0.0019351254
   10    9    9    2        0.0000939020
   10    9    9    4        0.0015767169
   10   10    9    9        0.0956115901
   10    1   10    1        0.0028879431
   10    2   10    2        0.0029460306
   10    3   10    1       -0.0002177759
   10    3   10    3        0.0110765410
   10    4   10    2       -0.0000221534
   10    4   10    4        0.0198539164
   10    5   10    5        0.0034827058
   10    6   10    6        0.0034827058
   10    7   10    1       -0.0001802828
   10    7   10    3       -0.0009080133
   10    7   10    7        0.0124256602
   10    8   10    8        0.0041876436
   10    9   10    9        0.0041876436
   10   10   10    2        0.0000263518
   10   10   10    4       -0.0152759848
   10   10   10   10        0.1066305195
 end_two_electron_integrals
 onebody.inp
     -5.1828934491     1
     -0.0000000000     2
     -5.1827327513     3
      0.1407077631     4
      0.0000000000     5
     -1.6283591310     6
      0.0000000000     7
     -0.0615162416     8
     -0.0000000000     9
     -0.8719011305    10
      0.0000000000    11
      0.0000000000    12
     -0.0000000000    13
      0.0000000000    14
     -0.9417922937    15
      0.0000000000    16
     -0.0000000000    17
      0.0000000000    18
     -0.0000000000    19
      0.0000000000    20
     -0.9417922937    21
      0.0190184840    22
      0.0000000000    23
     -0.1843515941    24
      0.0000000000    25
      0.0000000000    26
      0.0000000000    27
     -0.7521216351    28
      0.0000000000    29
      0.0000000000    30
     -0.0000000000    31
      0.0000000000    32
     -0.0000000000    33
      0.0000000000    34
     -0.0000000000    35
     -0.6196786760    36
      0.0000000000    37
     -0.0000000000    38
      0.0000000000    39
     -0.0000000000    40
     -0.0000000000    41
     -0.0000000000    42
      0.0000000000    43
      0.0000000000    44
     -0.6196786760    45
     -0.0000000000    46
      0.0722343211    47
     -0.0000000000    48
      0.3057093729    49
      0.0000000000    50
      0.0000000000    51
     -0.0000000000    52
     -0.0000000000    53
      0.0000000000    54
     -0.7545148314    55
 twobody.inp
    1    1    1    1        0.9391880557
    1    1    1    3       -0.0713735344
    1    1    1    7       -0.0130383175
    1    1    2    2        0.9408432990
    1    1    2    4        0.0289807453
    1    1    2   10       -0.0341141897
    1    1    3    1       -0.0713735344
    1    1    3    3        0.3022669621
    1    1    3    7        0.0395613405
    1    1    4    2        0.0289807453
    1    1    4    4        0.1558693998
    1    1    4   10       -0.0589048321
    1    1    5    5        0.1681910833
    1    1    6    6        0.1681910833
    1    1    7    1       -0.0130383175
    1    1    7    3        0.0395613405
    1    1    7    7        0.1383145705
    1    1    8    8        0.1142062974
    1    1    9    9        0.1142062974
    1    1   10    2       -0.0341141897
    1    1   10    4       -0.0589048321
    1    1   10   10        0.1456951856
    1    2    1    2        0.6933856229
    1    2    1    4        0.0269006079
    1    2    1   10       -0.0317677597
    1    2    2    1        0.6935496003
    1    2    2    3       -0.0756286165
    1    2    2    7       -0.0166547996
    1    2    3    2       -0.0756309017
    1    2    3    4       -0.0341467694
    1    2    3   10        0.0348478307
    1    2    4    1        0.0268952294
    1    2    4    3       -0.0341515723
    1    2    4    7        0.0228840867
    1    2    5    8        0.0063950617
    1    2    5    9        0.0157214181
    1    2    6    8       -0.0157214181
    1    2    6    9        0.0063950617
    1    2    7    2       -0.0166598485
    1    2    7    4        0.0228858724
    1    2    7   10       -0.0017399525
    1    2    8    5        0.0063946410
    1    2    8    6       -0.0157203837
    1    2    9    5        0.0157203837
    1    2    9    6        0.0063946410
    1    2   10    1       -0.0317609157
    1    2   10    3        0.0348519251
    1    2   10    7       -0.0017383146
    1    3    1    1       -0.0713735344
    1    3    1    3        0.0083342035
    1    3    1    7        0.0027552699
    1    3    2    2       -0.0716609654
    1    3    2    4       -0.0039463176
    1    3    2   10        0.0046596763
    1    3    3    1        0.0105716124
    1    3    3    3       -0.0019014084
    1    3    3    7        0.0002776259
    1    3    4    2       -0.0042926355
    1    3    4    4       -0.0008513248
    1    3    4   10        0.0007698295
    1    3    5    5        0.0003801669
    1    3    6    6        0.0003801669
    1    3    7    1        0.0030619902
    1    3    7    3       -0.0001421923
    1    3    7    7       -0.0001133709
    1    3    8    8       -0.0000842848
    1    3    9    9       -0.0000842848
    1    3   10    2        0.0049230217
    1    3   10    4        0.0007708234
    1    3   10   10       -0.0009262710
    1    4    1    2        0.0269006079
    1    4    1    4        0.0020368323
    1    4    1   10       -0.0024253887
    1    4    2    1        0.0268952294
    1    4    2    3       -0.0040159463
    1    4    2    7       -0.0006991223
    1    4    3    2       -0.0043603625
    1    4    3    4       -0.0000356447
    1    4    3   10        0.0002040709
    1    4    4    1        0.0015618592
    1    4    4    3        0.0001503701
    1    4    4    7       -0.0005564547
    1    4    5    8       -0.0000872089
    1    4    5    9       -0.0002143917
    1    4    6    8        0.0002143917
    1    4    6    9       -0.0000872089
    1    4    7    2       -0.0005143165
    1    4    7    4       -0.0005486552
    1    4    7   10        0.0001499768
    1    4    8    5       -0.0000864304
    1    4    8    6        0.0002124777
    1    4    9    5       -0.0002124777
    1    4    9    6       -0.0000864304
    1    4   10    1       -0.0018443717
    1    4   10    3       -0.0000492827
    1    4   10    7        0.0001565389
    1    5    1    5        0.0006394970
    1    5    2    8        0.0000845634
    1    5    2    9        0.0002078881
    1    5    3    5        0.0016943716
    1    5    4    8       -0.0002009710
    1    5    4    9       -0.0004940608
    1    5    5    1        0.0006035179
    1    5    5    3        0.0017641858
    1    5    5    7        0.0001813713
    1    5    7    5        0.0002039363
    1    5    8    2        0.0000706979
    1    5    8    4       -0.0002006789
    1    5    8   10        0.0001042895
    1    5    9    2        0.0001738015
    1    5    9    4       -0.0004933427
    1    5    9   10        0.0002563819
    1    5   10    8        0.0001046234
    1    5   10    9        0.0002572029
    1    6    1    6        0.0006394970
    1    6    2    8       -0.0002078881
    1    6    2    9        0.0000845634
    1    6    3    6        0.0016943716
    1    6    4    8        0.0004940608
    1    6    4    9       -0.0002009710
    1    6    6    1        0.0006035179
    1    6    6    3        0.0017641858
    1    6    6    7        0.0001813713
    1    6    7    6        0.0002039363
    1    6    8    2       -0.0001738015
    1    6    8    4        0.0004933427
    1    6    8   10       -0.0002563819
    1    6    9    2        0.0000706979
    1    6    9    4       -0.0002006789
    1    6    9   10        0.0001042895
    1    6   10    8       -0.0002572029
    1    6   10    9        0.0001046234
    1    7    1    1       -0.0130383175
    1    7    1    3        0.0027552699
    1    7    1    7        0.0011882825
    1    7    2    2       -0.0131263242
    1    7    2    4       -0.0006322245
    1    7    2   10        0.0007567976
    1    7    3    1        0.0030619902
    1    7    3    3        0.0015669055
    1    7    3    7        0.0010124916
    1    7    4    2       -0.0004517387
    1    7    4    4       -0.0005428154
    1    7    4   10        0.0003988533
    1    7    5    5        0.0004012921
    1    7    6    6        0.0004012921
    1    7    7    1        0.0009786953
    1    7    7    3        0.0010075897
    1    7    7    7        0.0000585030
    1    7    8    8       -0.0000558861
    1    7    9    9       -0.0000558861
    1    7   10    2        0.0005400521
    1    7   10    4        0.0003918152
    1    7   10   10       -0.0004869601
    1    8    1    8        0.0000638570
    1    8    2    5        0.0000774775
    1    8    2    6       -0.0001904684
    1    8    3    8        0.0001456637
    1    8    4    5       -0.0000605021
    1    8    4    6        0.0001487365
    1    8    5    2        0.0000644786
    1    8    5    4       -0.0000603382
    1    8    5   10        0.0000601970
    1    8    6    2       -0.0001585121
    1    8    6    4        0.0001483336
    1    8    6   10       -0.0001479864
    1    8    7    8       -0.0000408935
    1    8    8    1        0.0000566217
    1    8    8    3        0.0001075795
    1    8    8    7       -0.0000418678
    1    8   10    5        0.0000604133
    1    8   10    6       -0.0001485182
    1    9    1    9        0.0000638570
    1    9    2    5        0.0001904684
    1    9    2    6        0.0000774775
    1    9    3    9        0.0001456637
    1    9    4    5       -0.0001487365
    1    9    4    6       -0.0000605021
    1    9    5    2        0.0001585121
    1    9    5    4       -0.0001483336
    1    9    5   10        0.0001479864
    1    9    6    2        0.0000644786
    1    9    6    4       -0.0000603382
    1    9    6   10        0.0000601970
    1    9    7    9       -0.0000408935
    1    9    9    1        0.0000566217
    1    9    9    3        0.0001075795
    1    9    9    7       -0.0000418678
    1    9   10    5        0.0001485182
    1    9   10    6        0.0000604133
    1   10    1    2       -0.0317677597
    1   10    1    4       -0.0024253887
    1   10    1   10        0.0028879431
    1   10    2    1       -0.0317609157
    1   10    2    3        0.0047404871
    1   10    2    7        0.0008351251
    1   10    3    2        0.0050029893
    1   10    3    4        0.0000722792
    1   10    3   10       -0.0002177759
    1   10    4    1       -0.0018443717
    1   10    4    3       -0.0001573076
    1   10    4    7        0.0006024754
    1   10    5    8        0.0000970339
    1   10    5    9        0.0002385451
    1   10    6    8       -0.0002385451
    1   10    6    9        0.0000970339
    1   10    7    2        0.0006123433
    1   10    7    4        0.0005871683
    1   10    7   10       -0.0001802828
    1   10    8    5        0.0000962684
    1   10    8    6       -0.0002366632
    1   10    9    5        0.0002366632
    1   10    9    6        0.0000962684
    1   10   10    1        0.0021793156
    1   10   10    3        0.0000478772
    1   10   10    7       -0.0001916241
    2    1    1    2        0.6935496003
    2    1    1    4        0.0268952294
    2    1    1   10       -0.0317609157
    2    1    2    1        0.6933856229
    2    1    2    3       -0.0756309017
    2    1    2    7       -0.0166598485
    2    1    3    2       -0.0756286165
    2    1    3    4       -0.0341515723
    2    1    3   10        0.0348519251
    2    1    4    1        0.0269006079
    2    1    4    3       -0.0341467694
    2    1    4    7        0.0228858724
    2    1    5    8        0.0063946410
    2    1    5    9        0.0157203837
    2    1    6    8       -0.0157203837
    2    1    6    9        0.0063946410
    2    1    7    2       -0.0166547996
    2    1    7    4        0.0228840867
    2    1    7   10       -0.0017383146
    2    1    8    5        0.0063950617
    2    1    8    6       -0.0157214181
    2    1    9    5        0.0157214181
    2    1    9    6        0.0063950617
    2    1   10    1       -0.0317677597
    2    1   10    3        0.0348478307
    2    1   10    7       -0.0017399525
    2    2    1    1        0.9408432990
    2    2    1    3       -0.0716609654
    2    2    1    7       -0.0131263242
    2    2    2    2        0.9421814781
    2    2    2    4        0.0290424579
    2    2    2   10       -0.0341892400
    2    2    3    1       -0.0716609654
    2    2    3    3        0.3020504607
    2    2    3    7        0.0394623825
    2    2    4    2        0.0290424579
    2    2    4    4        0.1559114431
    2    2    4   10       -0.0589374219
    2    2    5    5        0.1681674417
    2    2    6    6        0.1681674417
    2    2    7    1       -0.0131263242
    2    2    7    3        0.0394623825
    2    2    7    7        0.1383037567
    2    2    8    8        0.1142117745
    2    2    9    9        0.1142117745
    2    2   10    2       -0.0341892400
    2    2   10    4       -0.0589374219
    2    2   10   10        0.1457352337
    2    3    1    2       -0.0756286165
    2    3    1    4       -0.0040159463
    2    3    1   10        0.0047404871
    2    3    2    1       -0.0756309017
    2    3    2    3        0.0084255150
    2    3    2    7        0.0026701229
    2    3    3    2        0.0105755513
    2    3    3    4        0.0018995126
    2    3    3   10       -0.0020197723
    2    3    4    1       -0.0043603625
    2    3    4    3        0.0023630924
    2    3    4    7       -0.0007491559
    2    3    5    8       -0.0001833197
    2    3    5    9       -0.0004506675
    2    3    6    8        0.0004506675
    2    3    6    9       -0.0001833197
    2    3    7    2        0.0029724198
    2    3    7    4       -0.0006935113
    2    3    7   10        0.0000171193
    2    3    8    5       -0.0001900584
    2    3    8    6        0.0004672336
    2    3    9    5       -0.0004672336
    2    3    9    6       -0.0001900584
    2    3   10    1        0.0050029893
    2    3   10    3       -0.0024493159
    2    3   10    7        0.0000673468
    2    4    1    1        0.0289807453
    2    4    1    3       -0.0039463176
    2    4    1    7       -0.0006322245
    2    4    2    2        0.0290424579
    2    4    2    4        0.0020797548
    2    4    2   10       -0.0024761328
    2    4    3    1       -0.0042926355
    2    4    3    3        0.0027551083
    2    4    3    7        0.0010423056
    2    4    4    2        0.0016003282
    2    4    4    4       -0.0001375350
    2    4    4   10        0.0000166952
    2    4    5    5        0.0003029225
    2    4    6    6        0.0003029225
    2    4    7    1       -0.0004517387
    2    4    7    3        0.0009233098
    2    4    7    7        0.0001641657
    2    4    8    8       -0.0000272271
    2    4    9    9       -0.0000272271
    2    4   10    2       -0.0018890194
    2    4   10    4        0.0000144270
    2    4   10   10       -0.0000244766
    2    5    1    8        0.0000774775
    2    5    1    9        0.0001904684
    2    5    2    5        0.0005536693
    2    5    3    8        0.0001323114
    2    5    3    9        0.0003252702
    2    5    4    5       -0.0004646161
    2    5    5    2        0.0005297215
    2    5    5    4       -0.0004656788
    2    5    5   10        0.0004639159
    2    5    7    8       -0.0000417344
    2    5    7    9       -0.0001025985
    2    5    8    1        0.0000644786
    2    5    8    3        0.0001174466
    2    5    8    7       -0.0000427616
    2    5    9    1        0.0001585121
    2    5    9    3        0.0002887269
    2    5    9    7       -0.0001051237
    2    5   10    5        0.0004603435
    2    6    1    8       -0.0001904684
    2    6    1    9        0.0000774775
    2    6    2    6        0.0005536693
    2    6    3    8       -0.0003252702
    2    6    3    9        0.0001323114
    2    6    4    6       -0.0004646161
    2    6    6    2        0.0005297215
    2    6    6    4       -0.0004656788
    2    6    6   10        0.0004639159
    2    6    7    8        0.0001025985
    2    6    7    9       -0.0000417344
    2    6    8    1       -0.0001585121
    2    6    8    3       -0.0002887269
    2    6    8    7        0.0001051237
    2    6    9    1        0.0000644786
    2    6    9    3        0.0001174466
    2    6    9    7       -0.0000427616
    2    6   10    6        0.0004603435
    2    7    1    2       -0.0166547996
    2    7    1    4       -0.0006991223
    2    7    1   10        0.0008351251
    2    7    2    1       -0.0166598485
    2    7    2    3        0.0026701229
    2    7    2    7        0.0010763208
    2    7    3    2        0.0029724198
    2    7    3    4        0.0010768321
    2    7    3   10       -0.0010489399
    2    7    4    1       -0.0005143165
    2    7    4    3        0.0008678306
    2    7    4    7       -0.0007693099
    2    7    5    8       -0.0001520813
    2    7    5    9       -0.0003738719
    2    7    6    8        0.0003738719
    2    7    6    9       -0.0001520813
    2    7    7    2        0.0008808764
    2    7    7    4       -0.0007587803
    2    7    7   10        0.0001408230
    2    7    8    5       -0.0001526181
    2    7    8    6        0.0003751915
    2    7    9    5       -0.0003751915
    2    7    9    6       -0.0001526181
    2    7   10    1        0.0006123433
    2    7   10    3       -0.0008302696
    2    7   10    7        0.0001520179
    2    8    1    5        0.0000845634
    2    8    1    6       -0.0002078881
    2    8    2    8        0.0000683451
    2    8    3    5        0.0001779912
    2    8    3    6       -0.0004375679
    2    8    4    8       -0.0001731353
    2    8    5    1        0.0000706979
    2    8    5    3        0.0001810237
    2    8    5    7        0.0000153982
    2    8    6    1       -0.0001738015
    2    8    6    3       -0.0004450230
    2    8    6    7       -0.0000378544
    2    8    7    5        0.0000157201
    2    8    7    6       -0.0000386459
    2    8    8    2        0.0000604606
    2    8    8    4       -0.0001737000
    2    8    8   10        0.0000939020
    2    8   10    8        0.0000934622
    2    9    1    5        0.0002078881
    2    9    1    6        0.0000845634
    2    9    2    9        0.0000683451
    2    9    3    5        0.0004375679
    2    9    3    6        0.0001779912
    2    9    4    9       -0.0001731353
    2    9    5    1        0.0001738015
    2    9    5    3        0.0004450230
    2    9    5    7        0.0000378544
    2    9    6    1        0.0000706979
    2    9    6    3        0.0001810237
    2    9    6    7        0.0000153982
    2    9    7    5        0.0000386459
    2    9    7    6        0.0000157201
    2    9    9    2        0.0000604606
    2    9    9    4       -0.0001737000
    2    9    9   10        0.0000939020
    2    9   10    9        0.0000934622
    2   10    1    1       -0.0341141897
    2   10    1    3        0.0046596763
    2   10    1    7        0.0007567976
    2   10    2    2       -0.0341892400
    2   10    2    4       -0.0024761328
    2   10    2   10        0.0029460306
    2   10    3    1        0.0049230217
    2   10    3    3       -0.0030953137
    2   10    3    7       -0.0011789379
    2   10    4    2       -0.0018890194
    2   10    4    4        0.0001615181
    2   10    4   10       -0.0000221534
    2   10    5    5       -0.0003090363
    2   10    6    6       -0.0003090363
    2   10    7    1        0.0005400521
    2   10    7    3       -0.0010354284
    2   10    7    7       -0.0001868848
    2   10    8    8        0.0000440746
    2   10    9    9        0.0000440746
    2   10   10    2        0.0022311153
    2   10   10    4       -0.0000177720
    2   10   10   10        0.0000263518
    3    1    1    1       -0.0713735344
    3    1    1    3        0.0105716124
    3    1    1    7        0.0030619902
    3    1    2    2       -0.0716609654
    3    1    2    4       -0.0042926355
    3    1    2   10        0.0049230217
    3    1    3    1        0.0083342035
    3    1    3    3       -0.0019014084
    3    1    3    7       -0.0001421923
    3    1    4    2       -0.0039463176
    3    1    4    4       -0.0008513248
    3    1    4   10        0.0007708234
    3    1    5    5        0.0003801669
    3    1    6    6        0.0003801669
    3    1    7    1        0.0027552699
    3    1    7    3        0.0002776259
    3    1    7    7       -0.0001133709
    3    1    8    8       -0.0000842848
    3    1    9    9       -0.0000842848
    3    1   10    2        0.0046596763
    3    1   10    4        0.0007698295
    3    1   10   10       -0.0009262710
    3    2    1    2       -0.0756309017
    3    2    1    4       -0.0043603625
    3    2    1   10        0.0050029893
    3    2    2    1       -0.0756286165
    3    2    2    3        0.0105755513
    3    2    2    7        0.0029724198
    3    2    3    2        0.0084255150
    3    2    3    4        0.0023630924
    3    2    3   10       -0.0024493159
    3    2    4    1       -0.0040159463
    3    2    4    3        0.0018995126
    3    2    4    7       -0.0006935113
    3    2    5    8       -0.0001900584
    3    2    5    9       -0.0004672336
    3    2    6    8        0.0004672336
    3    2    6    9       -0.0001900584
    3    2    7    2        0.0026701229
    3    2    7    4       -0.0007491559
    3    2    7   10        0.0000673468
    3    2    8    5       -0.0001833197
    3    2    8    6        0.0004506675
    3    2    9    5       -0.0004506675
    3    2    9    6       -0.0001833197
    3    2   10    1        0.0047404871
    3    2   10    3       -0.0020197723
    3    2   10    7        0.0000171193
    3    3    1    1        0.3022669621
    3    3    1    3       -0.0019014084
    3    3    1    7        0.0015669055
    3    3    2    2        0.3020504607
    3    3    2    4        0.0027551083
    3    3    2   10       -0.0030953137
    3    3    3    1       -0.0019014084
    3    3    3    3        0.2474952225
    3    3    3    7        0.0256760787
    3    3    4    2        0.0027551083
    3    3    4    4        0.1391331681
    3    3    4   10       -0.0436624361
    3    3    5    5        0.1592051867
    3    3    6    6        0.1592051867
    3    3    7    1        0.0015669055
    3    3    7    3        0.0256760787
    3    3    7    7        0.1266019659
    3    3    8    8        0.1115780033
    3    3    9    9        0.1115780033
    3    3   10    2       -0.0030953137
    3    3   10    4       -0.0436624361
    3    3   10   10        0.1277105584
    3    4    1    2       -0.0341467694
    3    4    1    4       -0.0000356447
    3    4    1   10        0.0000722792
    3    4    2    1       -0.0341515723
    3    4    2    3        0.0018995126
    3    4    2    7        0.0010768321
    3    4    3    2        0.0023630924
    3    4    3    4        0.0148250355
    3    4    3   10       -0.0109868449
    3    4    4    1        0.0001503701
    3    4    4    3        0.0146818517
    3    4    4    7       -0.0188935106
    3    4    5    8       -0.0043435846
    3    4    5    9       -0.0106781314
    3    4    6    8        0.0106781314
    3    4    6    9       -0.0043435846
    3    4    7    2        0.0008678306
    3    4    7    4       -0.0184373769
    3    4    7   10       -0.0017498574
    3    4    8    5       -0.0043605116
    3    4    8    6        0.0107197443
    3    4    9    5       -0.0107197443
    3    4    9    6       -0.0043605116
    3    4   10    1       -0.0001573076
    3    4   10    3       -0.0122718289
    3    4   10    7       -0.0012448903
    3    5    1    5        0.0016943716
    3    5    2    8        0.0001779912
    3    5    2    9        0.0004375679
    3    5    3    5        0.0324338707
    3    5    4    8       -0.0039700958
    3    5    4    9       -0.0097599582
    3    5    5    1        0.0017641858
    3    5    5    3        0.0230239079
    3    5    5    7        0.0002022218
    3    5    7    5        0.0022874332
    3    5    8    2        0.0001810237
    3    5    8    4       -0.0040837067
    3    5    8   10        0.0010541541
    3    5    9    2        0.0004450230
    3    5    9    4       -0.0100392557
    3    5    9   10        0.0025914991
    3    5   10    8        0.0009482106
    3    5   10    9        0.0023310511
    3    6    1    6        0.0016943716
    3    6    2    8       -0.0004375679
    3    6    2    9        0.0001779912
[...]
   10    7    8    5        0.0019351254
   10    7    8    6       -0.0047572512
   10    7    9    5        0.0047572512
   10    7    9    6        0.0019351254
   10    7   10    1       -0.0001802828
   10    7   10    3       -0.0009080133
   10    7   10    7        0.0124256602
   10    8    1    5        0.0001046234
   10    8    1    6       -0.0002572029
   10    8    2    8        0.0000934622
   10    8    3    5        0.0009482106
   10    8    3    6       -0.0023310511
   10    8    4    8        0.0015767169
   10    8    5    1        0.0001042895
   10    8    5    3        0.0010541541
   10    8    5    7        0.0004598115
   10    8    6    1       -0.0002563819
   10    8    6    3       -0.0025914991
   10    8    6    7       -0.0011303860
   10    8    7    5        0.0004598115
   10    8    7    6       -0.0011303860
   10    8    8    2        0.0000939020
   10    8    8    4        0.0015767169
   10    8    8   10        0.0041876436
   10    8   10    8        0.0041876436
   10    9    1    5        0.0002572029
   10    9    1    6        0.0001046234
   10    9    2    9        0.0000934622
   10    9    3    5        0.0023310511
   10    9    3    6        0.0009482106
   10    9    4    9        0.0015767169
   10    9    5    1        0.0002563819
   10    9    5    3        0.0025914991
   10    9    5    7        0.0011303860
   10    9    6    1        0.0001042895
   10    9    6    3        0.0010541541
   10    9    6    7        0.0004598115
   10    9    7    5        0.0011303860
   10    9    7    6        0.0004598115
   10    9    9    2        0.0000939020
   10    9    9    4        0.0015767169
   10    9    9   10        0.0041876436
   10    9   10    9        0.0041876436
   10   10    1    1        0.1456951856
   10   10    1    3       -0.0009262710
   10   10    1    7       -0.0004869601
   10   10    2    2        0.1457352337
   10   10    2    4       -0.0000244766
   10   10    2   10        0.0000263518
   10   10    3    1       -0.0009262710
   10   10    3    3        0.1277105584
   10   10    3    7        0.0016998035
   10   10    4    2       -0.0000244766
   10   10    4    4        0.1137342819
   10   10    4   10       -0.0152759848
   10   10    5    5        0.1052283671
   10   10    6    6        0.1052283671
   10   10    7    1       -0.0004869601
   10   10    7    3        0.0016998035
   10   10    7    7        0.1091206644
   10   10    8    8        0.0956115901
   10   10    9    9        0.0956115901
   10   10   10    2        0.0000263518
   10   10   10    4       -0.0152759848
   10   10   10   10        0.1066305195
 fcidump
      0.9391880557     1   1   1   1
      0.6933856229     2   1   2   1
      0.9408432990     2   2   1   1
      0.9421814781     2   2   2   2
     -0.0713735344     3   1   1   1
     -0.0716609654     3   1   2   2
      0.0083342035     3   1   3   1
     -0.0756286165     3   2   2   1
      0.0084255150     3   2   3   2
      0.3022669621     3   3   1   1
      0.3020504607     3   3   2   2
     -0.0019014084     3   3   3   1
      0.2474952225     3   3   3   3
      0.0269006079     4   1   2   1
     -0.0040159463     4   1   3   2
      0.0020368323     4   1   4   1
      0.0289807453     4   2   1   1
      0.0290424579     4   2   2   2
     -0.0039463176     4   2   3   1
      0.0027551083     4   2   3   3
      0.0020797548     4   2   4   2
     -0.0341467694     4   3   2   1
      0.0018995126     4   3   3   2
     -0.0000356447     4   3   4   1
      0.0148250355     4   3   4   3
      0.1558693998     4   4   1   1
      0.1559114431     4   4   2   2
     -0.0008513248     4   4   3   1
      0.1391331681     4   4   3   3
     -0.0001375350     4   4   4   2
      0.1275589742     4   4   4   4
      0.0006394970     5   1   5   1
      0.0005536693     5   2   5   2
      0.0016943716     5   3   5   1
      0.0324338707     5   3   5   3
     -0.0004646161     5   4   5   2
      0.0070033344     5   4   5   4
      0.1681910833     5   5   1   1
      0.1681674417     5   5   2   2
      0.0003801669     5   5   3   1
      0.1592051867     5   5   3   3
      0.0003029225     5   5   4   2
      0.1152849931     5   5   4   4
      0.1382672704     5   5   5   5
      0.0006394970     6   1   6   1
      0.0005536693     6   2   6   2
      0.0016943716     6   3   6   1
      0.0324338707     6   3   6   3
     -0.0004646161     6   4   6   2
      0.0070033344     6   4   6   4
      0.0071351120     6   5   6   5
      0.1681910833     6   6   1   1
      0.1681674417     6   6   2   2
      0.0003801669     6   6   3   1
      0.1592051867     6   6   3   3
      0.0003029225     6   6   4   2
      0.1152849931     6   6   4   4
      0.1239970463     6   6   5   5
      0.1382672704     6   6   6   6
     -0.0130383175     7   1   1   1
     -0.0131263242     7   1   2   2
      0.0027552699     7   1   3   1
      0.0015669055     7   1   3   3
     -0.0006322245     7   1   4   2
     -0.0005428154     7   1   4   4
      0.0004012921     7   1   5   5
      0.0004012921     7   1   6   6
      0.0011882825     7   1   7   1
     -0.0166547996     7   2   2   1
      0.0026701229     7   2   3   2
     -0.0006991223     7   2   4   1
      0.0010768321     7   2   4   3
      0.0010763208     7   2   7   2
      0.0395613405     7   3   1   1
      0.0394623825     7   3   2   2
      0.0002776259     7   3   3   1
      0.0256760787     7   3   3   3
      0.0010423056     7   3   4   2
      0.0002673941     7   3   4   4
      0.0113514215     7   3   5   5
      0.0113514215     7   3   6   6
      0.0010124916     7   3   7   1
      0.0150695627     7   3   7   3
      0.0228840867     7   4   2   1
     -0.0007491559     7   4   3   2
     -0.0005564547     7   4   4   1
     -0.0188935106     7   4   4   3
     -0.0007693099     7   4   7   2
      0.0429074605     7   4   7   4
      0.0001813713     7   5   5   1
      0.0002022218     7   5   5   3
      0.0032863265     7   5   7   5
      0.0001813713     7   6   6   1
      0.0002022218     7   6   6   3
      0.0032863265     7   6   7   6
      0.1383145705     7   7   1   1
      0.1383037567     7   7   2   2
     -0.0001133709     7   7   3   1
      0.1266019659     7   7   3   3
      0.0001641657     7   7   4   2
      0.1212438986     7   7   4   4
      0.1055343005     7   7   5   5
      0.1055343005     7   7   6   6
      0.0000585030     7   7   7   1
      0.0008180213     7   7   7   3
      0.1219392346     7   7   7   7
      0.0000774775     8   1   5   2
     -0.0000605021     8   1   5   4
     -0.0001904684     8   1   6   2
      0.0001487365     8   1   6   4
      0.0000638570     8   1   8   1
      0.0000845634     8   2   5   1
      0.0001779912     8   2   5   3
     -0.0002078881     8   2   6   1
     -0.0004375679     8   2   6   3
      0.0000153982     8   2   7   5
     -0.0000378544     8   2   7   6
      0.0000683451     8   2   8   2
      0.0001323114     8   3   5   2
     -0.0014042269     8   3   5   4
     -0.0003252702     8   3   6   2
      0.0034521071     8   3   6   4
      0.0001456637     8   3   8   1
      0.0037302664     8   3   8   3
     -0.0002009710     8   4   5   1
     -0.0039700958     8   4   5   3
      0.0004940608     8   4   6   1
      0.0097599582     8   4   6   3
      0.0020290479     8   4   7   5
     -0.0049881475     8   4   7   6
     -0.0001731353     8   4   8   2
      0.0151936823     8   4   8   4
      0.0063950617     8   5   2   1
     -0.0001833197     8   5   3   2
     -0.0000872089     8   5   4   1
     -0.0043435846     8   5   4   3
     -0.0001520813     8   5   7   2
      0.0076648924     8   5   7   4
      0.0043833477     8   5   8   5
     -0.0157214181     8   6   2   1
      0.0004506675     8   6   3   2
      0.0002143917     8   6   4   1
      0.0106781314     8   6   4   3
      0.0003738719     8   6   7   2
     -0.0188431299     8   6   7   4
     -0.0050693559     8   6   8   5
      0.0147836111     8   6   8   6
     -0.0000417344     8   7   5   2
      0.0025392609     8   7   5   4
      0.0001025985     8   7   6   2
     -0.0062424389     8   7   6   4
     -0.0000408935     8   7   8   1
     -0.0034705982     8   7   8   3
      0.0100421548     8   7   8   7
      0.1142062974     8   8   1   1
      0.1142117745     8   8   2   2
     -0.0000842848     8   8   3   1
      0.1115780033     8   8   3   3
     -0.0000272271     8   8   4   2
      0.1049235505     8   8   4   4
      0.1003722515     8   8   5   5
     -0.0029618896     8   8   6   5
      0.1064488482     8   8   6   6
     -0.0000558861     8   8   7   1
      0.0003269070     8   8   7   3
      0.1012694062     8   8   7   7
      0.1036160021     8   8   8   8
      0.0001904684     9   1   5   2
     -0.0001487365     9   1   5   4
      0.0000774775     9   1   6   2
     -0.0000605021     9   1   6   4
      0.0000638570     9   1   9   1
      0.0002078881     9   2   5   1
      0.0004375679     9   2   5   3
      0.0000845634     9   2   6   1
      0.0001779912     9   2   6   3
      0.0000378544     9   2   7   5
      0.0000153982     9   2   7   6
      0.0000683451     9   2   9   2
      0.0003252702     9   3   5   2
     -0.0034521071     9   3   5   4
      0.0001323114     9   3   6   2
     -0.0014042269     9   3   6   4
      0.0001456637     9   3   9   1
      0.0037302664     9   3   9   3
     -0.0004940608     9   4   5   1
     -0.0097599582     9   4   5   3
     -0.0002009710     9   4   6   1
     -0.0039700958     9   4   6   3
      0.0049881475     9   4   7   5
      0.0020290479     9   4   7   6
     -0.0001731353     9   4   9   2
      0.0151936823     9   4   9   4
      0.0157214181     9   5   2   1
     -0.0004506675     9   5   3   2
     -0.0002143917     9   5   4   1
     -0.0106781314     9   5   4   3
     -0.0003738719     9   5   7   2
      0.0188431299     9   5   7   4
      0.0050693559     9   5   8   5
     -0.0101410785     9   5   8   6
      0.0147836111     9   5   9   5
      0.0063950617     9   6   2   1
     -0.0001833197     9   6   3   2
     -0.0000872089     9   6   4   1
     -0.0043435846     9   6   4   3
     -0.0001520813     9   6   7   2
      0.0076648924     9   6   7   4
     -0.0002591849     9   6   8   5
     -0.0050693559     9   6   8   6
      0.0050693559     9   6   9   5
      0.0043833477     9   6   9   6
     -0.0001025985     9   7   5   2
      0.0062424389     9   7   5   4
     -0.0000417344     9   7   6   2
      0.0025392609     9   7   6   4
     -0.0000408935     9   7   9   1
     -0.0034705982     9   7   9   3
      0.0100421548     9   7   9   7
      0.0029618896     9   8   5   5
     -0.0030382984     9   8   6   5
     -0.0029618896     9   8   6   6
      0.0054191596     9   8   9   8
      0.1142062974     9   9   1   1
      0.1142117745     9   9   2   2
     -0.0000842848     9   9   3   1
      0.1115780033     9   9   3   3
     -0.0000272271     9   9   4   2
      0.1049235505     9   9   4   4
      0.1064488482     9   9   5   5
      0.0029618896     9   9   6   5
      0.1003722515     9   9   6   6
     -0.0000558861     9   9   7   1
      0.0003269070     9   9   7   3
      0.1012694062     9   9   7   7
      0.0927776830     9   9   8   8
      0.1036160021     9   9   9   9
     -0.0317677597    10   1   2   1
      0.0047404871    10   1   3   2
     -0.0024253887    10   1   4   1
      0.0000722792    10   1   4   3
      0.0008351251    10   1   7   2
      0.0006024754    10   1   7   4
      0.0000970339    10   1   8   5
     -0.0002385451    10   1   8   6
      0.0002385451    10   1   9   5
      0.0000970339    10   1   9   6
      0.0028879431    10   1  10   1
     -0.0341141897    10   2   1   1
     -0.0341892400    10   2   2   2
      0.0046596763    10   2   3   1
     -0.0030953137    10   2   3   3
     -0.0024761328    10   2   4   2
      0.0001615181    10   2   4   4
     -0.0003090363    10   2   5   5
     -0.0003090363    10   2   6   6
      0.0007567976    10   2   7   1
     -0.0011789379    10   2   7   3
     -0.0001868848    10   2   7   7
      0.0000440746    10   2   8   8
      0.0000440746    10   2   9   9
      0.0029460306    10   2  10   2
      0.0348478307    10   3   2   1
     -0.0020197723    10   3   3   2
      0.0002040709    10   3   4   1
     -0.0109868449    10   3   4   3
     -0.0010489399    10   3   7   2
      0.0119434883    10   3   7   4
      0.0031001191    10   3   8   5
     -0.0076212350    10   3   8   6
      0.0076212350    10   3   9   5
      0.0031001191    10   3   9   6
     -0.0002177759    10   3  10   1
      0.0110765410    10   3  10   3
     -0.0589048321    10   4   1   1
     -0.0589374219    10   4   2   2
      0.0007698295    10   4   3   1
     -0.0436624361    10   4   3   3
      0.0000166952    10   4   4   2
     -0.0212232754    10   4   4   4
     -0.0253157354    10   4   5   5
     -0.0253157354    10   4   6   6
      0.0003988533    10   4   7   1
     -0.0038781934    10   4   7   3
     -0.0111936926    10   4   7   7
     -0.0111725479    10   4   8   8
     -0.0111725479    10   4   9   9
     -0.0000221534    10   4  10   2
      0.0198539164    10   4  10   4
      0.0004639159    10   5   5   2
     -0.0033885085    10   5   5   4
      0.0000601970    10   5   8   1
      0.0008381867    10   5   8   3
     -0.0003330853    10   5   8   7
      0.0001479864    10   5   9   1
      0.0020605719    10   5   9   3
     -0.0008188465    10   5   9   7
      0.0034827058    10   5  10   5
      0.0004639159    10   6   6   2
     -0.0033885085    10   6   6   4
     -0.0001479864    10   6   8   1
     -0.0020605719    10   6   8   3
      0.0008188465    10   6   8   7
      0.0000601970    10   6   9   1
      0.0008381867    10   6   9   3
     -0.0003330853    10   6   9   7
      0.0034827058    10   6  10   6
     -0.0017399525    10   7   2   1
      0.0000171193    10   7   3   2
      0.0001499768    10   7   4   1
     -0.0017498574    10   7   4   3
      0.0001408230    10   7   7   2
      0.0128389883    10   7   7   4
      0.0019351254    10   7   8   5
     -0.0047572512    10   7   8   6
      0.0047572512    10   7   9   5
      0.0019351254    10   7   9   6
     -0.0001802828    10   7  10   1
     -0.0009080133    10   7  10   3
      0.0124256602    10   7  10   7
      0.0001042895    10   8   5   1
      0.0010541541    10   8   5   3
     -0.0002563819    10   8   6   1
     -0.0025914991    10   8   6   3
      0.0004598115    10   8   7   5
     -0.0011303860    10   8   7   6
      0.0000939020    10   8   8   2
      0.0015767169    10   8   8   4
      0.0041876436    10   8  10   8
      0.0002563819    10   9   5   1
      0.0025914991    10   9   5   3
      0.0001042895    10   9   6   1
      0.0010541541    10   9   6   3
      0.0011303860    10   9   7   5
      0.0004598115    10   9   7   6
      0.0000939020    10   9   9   2
      0.0015767169    10   9   9   4
      0.0041876436    10   9  10   9
      0.1456951856    10  10   1   1
      0.1457352337    10  10   2   2
     -0.0009262710    10  10   3   1
      0.1277105584    10  10   3   3
     -0.0000244766    10  10   4   2
      0.1137342819    10  10   4   4
      0.1052283671    10  10   5   5
      0.1052283671    10  10   6   6
     -0.0004869601    10  10   7   1
      0.0016998035    10  10   7   3
      0.1091206644    10  10   7   7
      0.0956115901    10  10   8   8
      0.0956115901    10  10   9   9
      0.0000263518    10  10  10   2
     -0.0152759848    10  10  10   4
      0.1066305195    10  10  10  10
     -5.1828934491     1   1   0   0
     -5.1827327513     2   2   0   0
      0.1407077631     3   1   0   0
     -1.6283591310     3   3   0   0
     -0.0615162416     4   2   0   0
     -0.8719011305     4   4   0   0
     -0.9417922937     5   5   0   0
     -0.9417922937     6   6   0   0
      0.0190184840     7   1   0   0
     -0.1843515941     7   3   0   0
     -0.7521216351     7   7   0   0
     -0.6196786760     8   8   0   0
     -0.6196786760     9   9   0   0
      0.0722343211    10   2   0   0
      0.3057093729    10   4   0   0
     -0.7545148314    10  10   0   0

 Parallel integral file used       9 records with       0 large values


 Task  times  cpu:      741.0s     wall:      745.4s


                                NWChem Input Module
                                -------------------


 Summary of allocated global arrays
-----------------------------------
  No active global arrays



                         GA Statistics for process    0
                         ------------------------------

       create   destroy   get      put      acc     scatter   gather  read&inc
calls: 2041     2041     3.19e+06 1.79e+04 1.28e+05    0        0     1.71e+05 
number of processes/call 1.00e+00 1.00e+00 1.00e+00 0.00e+00 0.00e+00
bytes total:             1.24e+10 9.88e+07 2.18e+08 0.00e+00 0.00e+00 1.37e+06
bytes remote:            0.00e+00 0.00e+00 0.00e+00 0.00e+00 0.00e+00 0.00e+00
Max memory consumed for GA by this process: 73662736 bytes

MA_summarize_allocated_blocks: starting scan ...
MA_summarize_allocated_blocks: scan completed: 0 heap blocks, 0 stack blocks
MA usage statistics:

	allocation statistics:
					      heap	     stack
					      ----	     -----
	current number of blocks	         0	         0
	maximum number of blocks	        17	        40
	current total bytes		         0	         0
	maximum total bytes		  28329720	8298725256
	maximum total K-bytes		     28330	   8298726
	maximum total M-bytes		        29	      8299


                                     CITATION
                                     --------
                Please cite the following reference when publishing
                           results obtained with NWChem:

                 M. Valiev, E.J. Bylaska, N. Govind, K. Kowalski,
              T.P. Straatsma, H.J.J. van Dam, D. Wang, J. Nieplocha,
                        E. Apra, T.L. Windus, W.A. de Jong
                 "NWChem: a comprehensive and scalable open-source
                  solution for large scale molecular simulations"
                      Comput. Phys. Commun. 181, 1477 (2010)
                           doi:10.1016/j.cpc.2010.04.018

                                      AUTHORS
                                      -------
          E. Apra, E. J. Bylaska, W. A. de Jong, N. Govind, K. Kowalski,
       T. P. Straatsma, M. Valiev, H. J. J. van Dam, D. Wang, T. L. Windus,
        J. Hammond, J. Autschbach, K. Bhaskaran-Nair, J. Brabec, K. Lopata,
    S. A. Fischer, S. Krishnamoorthy, M. Jacquelin, W. Ma, M. Klemm, O. Villa,
      Y. Chen, V. Anisimov, F. Aquino, S. Hirata, M. T. Hackler, V. Konjkov,
            D. Mejia-Rodriguez, T. Risthaus, M. Malagoli, A. Marenich,
   A. Otero-de-la-Roza, J. Mullin, P. Nichols, R. Peverati, J. Pittner, Y. Zhao,
        P.-D. Fan, A. Fonari, M. J. Williamson, R. J. Harrison, J. R. Rehr,
      M. Dupuis, D. Silverstein, D. M. A. Smith, J. Nieplocha, V. Tipparaju,
    M. Krishnan, B. E. Van Kuiken, A. Vazquez-Mayagoitia, L. Jensen, M. Swart,
      Q. Wu, T. Van Voorhis, A. A. Auer, M. Nooijen, L. D. Crosby, E. Brown,
      G. Cisneros, G. I. Fann, H. Fruchtl, J. Garza, K. Hirao, R. A. Kendall,
      J. A. Nichols, K. Tsemekhman, K. Wolinski, J. Anchell, D. E. Bernholdt,
      P. Borowski, T. Clark, D. Clerc, H. Dachsel, M. J. O. Deegan, K. Dyall,
    D. Elwood, E. Glendening, M. Gutowski, A. C. Hess, J. Jaffe, B. G. Johnson,
     J. Ju, R. Kobayashi, R. Kutteh, Z. Lin, R. Littlefield, X. Long, B. Meng,
      T. Nakajima, S. Niu, L. Pollack, M. Rosing, K. Glaesemann, G. Sandrone,
      M. Stave, H. Taylor, G. Thomas, J. H. van Lenthe, A. T. Wong, Z. Zhang.

 Total times  cpu:      741.0s     wall:      745.5s
