 argument  1 = Li2-10_ORBITALS-ccpVTZ-5_346.nw
  NWChem w/ OpenMP: maximum threads =    1



============================== echo of input deck ==============================
title "Li2-REMOVE"
echo
start Li2-REMOVE

memory total 24 gb

geometry  units angstrom
symmetry c1
Li  0    0    0
Li  0    0    5.346
end

basis spherical
   * library cc-pvtz
end

scf
thresh 1.0e-10
tol2e 1.0e-10
rhf
singlet
maxiter 200
end

tce
   ccsd
   maxiter 200
   thresh 1.e-6
   2eorb
   2emet 13
   tilesize 5
end

set tce:qducc T
set tce:nactv 7

task tce energy

================================================================================


                                         
                                         


              Northwest Computational Chemistry Package (NWChem) 6.8
              ------------------------------------------------------


                    Environmental Molecular Sciences Laboratory
                       Pacific Northwest National Laboratory
                                Richland, WA 99352

                              Copyright (c) 1994-2018
                       Pacific Northwest National Laboratory
                            Battelle Memorial Institute

             NWChem is an open-source computational chemistry package
                        distributed under the terms of the
                      Educational Community License (ECL) 2.0
             A copy of the license is included with this distribution
                              in the LICENSE.TXT file

                                  ACKNOWLEDGMENT
                                  --------------

            This software and its documentation were developed at the
            EMSL at Pacific Northwest National Laboratory, a multiprogram
            national laboratory, operated for the U.S. Department of Energy
            by Battelle under Contract Number DE-AC05-76RL01830. Support
            for this work was provided by the Department of Energy Office
            of Biological and Environmental Research, Office of Basic
            Energy Sciences, and the Office of Advanced Scientific Computing.


           Job information
           ---------------

    hostname        = WE35263ubuntu
    program         = /home/baum612/code/NWChem/nwchem/bin/LINUX64/nwchem
    date            = Tue Apr  9 00:11:09 2019

    compiled        = Thu_Apr_04_14:53:19_2019
    source          = /home/baum612/code/NWChem/nwchem
    nwchem branch   = Development
    nwchem revision = nwchem_on_git-845-ga8f432451
    ga revision     = 5.6.5
    use scalapack   = F
    input           = Li2-10_ORBITALS-ccpVTZ-5_346.nw
    prefix          = Li2-REMOVE.
    data base       = ./Li2-REMOVE.db
    status          = startup
    nproc           =        1
    time left       =     -1s



           Memory information
           ------------------

    heap     =  805306368 doubles =   6144.0 Mbytes
    stack    =  805306365 doubles =   6144.0 Mbytes
    global   = 1610612736 doubles =  12288.0 Mbytes (distinct from heap & stack)
    total    = 3221225469 doubles =  24576.0 Mbytes
    verify   = yes
    hardfail = no 


           Directory information
           ---------------------

  0 permanent = .
  0 scratch   = .




                                NWChem Input Module
                                -------------------


                                    Li2-REMOVE
                                    ----------

 Scaling coordinates for geometry "geometry" by  1.889725989
 (inverse scale =  0.529177249)

 Turning off AUTOSYM since
 SYMMETRY directive was detected!


          ------
          auto-z
          ------
     1 autoz failed with cvr_scaling = 1.2 changing to 1.3
     2 autoz failed with cvr_scaling = 1.3 changing to 1.4
     3 autoz failed with cvr_scaling = 1.4 changing to 1.5
     4 autoz failed with cvr_scaling = 1.5 changing to 1.6
     5 autoz failed with cvr_scaling = 1.6 changing to 1.7

 AUTOZ failed to generate good internal coordinates.
 Cartesian coordinates will be used in optimizations.



                             Geometry "geometry" -> ""
                             -------------------------

 Output coordinates in angstroms (scale by  1.889725989 to convert to a.u.)

  No.       Tag          Charge          X              Y              Z
 ---- ---------------- ---------- -------------- -------------- --------------
    1 Li                   3.0000     0.00000000     0.00000000    -2.67300000
    2 Li                   3.0000     0.00000000     0.00000000     2.67300000

      Atomic Mass 
      ----------- 

      Li                 7.016000


 Effective nuclear repulsion energy (a.u.)       0.8908707896

            Nuclear Dipole moment (a.u.) 
            ----------------------------
        X                 Y               Z
 ---------------- ---------------- ----------------
     0.0000000000     0.0000000000     0.0000000000


            XYZ format geometry
            -------------------
     2
 geometry
 Li                    0.00000000     0.00000000    -2.67300000
 Li                    0.00000000     0.00000000     2.67300000



 Summary of "ao basis" -> "" (spherical)
 ------------------------------------------------------------------------------
       Tag                 Description            Shells   Functions and Types
 ---------------- ------------------------------  ------  ---------------------
 *                          cc-pvtz                   on all atoms 


                      Basis "ao basis" -> "ao basis" (spherical)
                      -----
  Li (Lithium)
  ------------
            Exponent  Coefficients 
       -------------- ---------------------------------------------------------
  1 S  5.98800000E+03  0.000133
  1 S  8.98900000E+02  0.001025
  1 S  2.05900000E+02  0.005272
  1 S  5.92400000E+01  0.020929
  1 S  1.98700000E+01  0.066340
  1 S  7.40600000E+00  0.165775
  1 S  2.93000000E+00  0.315038
  1 S  1.18900000E+00  0.393523
  1 S  4.79800000E-01  0.190870

  2 S  5.98800000E+03 -0.000021
  2 S  8.98900000E+02 -0.000161
  2 S  2.05900000E+02 -0.000820
  2 S  5.92400000E+01 -0.003326
  2 S  1.98700000E+01 -0.010519
  2 S  7.40600000E+00 -0.028097
  2 S  2.93000000E+00 -0.055936
  2 S  1.18900000E+00 -0.099237
  2 S  4.79800000E-01 -0.112189

  3 S  7.50900000E-02  1.000000

  4 S  2.83200000E-02  1.000000

  5 P  3.26600000E+00  0.008630
  5 P  6.51100000E-01  0.047538
  5 P  1.69600000E-01  0.209772

  6 P  5.57800000E-02  1.000000

  7 P  2.05000000E-02  1.000000

  8 D  1.87400000E-01  1.000000

  9 D  8.01000000E-02  1.000000

 10 F  1.82900000E-01  1.000000



 Summary of "ao basis" -> "ao basis" (spherical)
 ------------------------------------------------------------------------------
       Tag                 Description            Shells   Functions and Types
 ---------------- ------------------------------  ------  ---------------------
 Li                         cc-pvtz                 10       30   4s3p2d1f


                                 NWChem SCF Module
                                 -----------------


                                    Li2-REMOVE



  ao basis        = "ao basis"
  functions       =    60
  atoms           =     2
  closed shells   =     3
  open shells     =     0
  charge          =   0.00
  wavefunction    = RHF 
  input vectors   = atomic
  output vectors  = ./Li2-REMOVE.movecs
  use symmetry    = F
  symmetry adapt  = F


 Summary of "ao basis" -> "ao basis" (spherical)
 ------------------------------------------------------------------------------
       Tag                 Description            Shells   Functions and Types
 ---------------- ------------------------------  ------  ---------------------
 Li                         cc-pvtz                 10       30   4s3p2d1f



 Forming initial guess at       0.0s


      Superposition of Atomic Density Guess
      -------------------------------------

 Sum of atomic energies:         -14.86535760

      Non-variational initial energy
      ------------------------------

 Total energy =     -14.750548
 1-e energy   =     -21.208826
 2-e energy   =       5.567407
 HOMO         =      -0.098673
 LUMO         =      -0.065712


 Starting SCF solution at       0.1s



 ----------------------------------------------
         Quadratically convergent ROHF

 Convergence threshold     :          1.000E-10
 Maximum no. of iterations :          200
 Final Fock-matrix accuracy:          1.000E-10
 ----------------------------------------------


 Integral file          = ./Li2-REMOVE.aoints.0
 Record size in doubles =    65536    No. of integs per rec  =    43688
 Max. records in memory =       54    Max. records in file   =  1546361
 No. of bits per label  =        8    No. of bits per value  =       64


 #quartets = 2.130D+04 #integrals = 3.658D+05 #direct =  0.0% #cached =100.0%


              iter       energy          gnorm     gmax       time
             ----- ------------------- --------- --------- --------
                 1      -14.8228348034  4.28D-02  3.01D-02      0.3
                 2      -14.8243916857  2.10D-03  1.55D-03      0.3
                 3      -14.8243940329  7.62D-07  4.76D-07      0.4
                 4      -14.8243940329  5.34D-12  2.13D-12      0.4


       Final RHF  results 
       ------------------ 

         Total SCF energy =    -14.824394032870
      One-electron energy =    -21.127918605000
      Two-electron energy =      5.412653782568
 Nuclear repulsion energy =      0.890870789562

        Time for solution =      0.3s


             Final eigenvalues
             -----------------

              1      
    1   -2.5044
    2   -2.5044
    3   -0.1425
    4   -0.0285
    5    0.0262
    6    0.0262
    7    0.0281
    8    0.0421
    9    0.0421
   10    0.0514
   11    0.1147
   12    0.1230
   13    0.1230

                       ROHF Final Molecular Orbital Analysis
                       -------------------------------------

 Vector    2  Occ=2.000000D+00  E=-2.504393D+00
              MO Center= -1.1D-17, -5.4D-18, -1.6D-05, r^2= 7.3D+00
   Bfn.  Coefficient  Atom+Function         Bfn.  Coefficient  Atom+Function  
  ----- ------------  ---------------      ----- ------------  ---------------
     1      0.706696  1 Li s                 31      0.706691  2 Li s          

 Vector    3  Occ=2.000000D+00  E=-1.425191D-01
              MO Center= -2.9D-15,  4.5D-15,  9.1D-12, r^2= 1.1D+01
   Bfn.  Coefficient  Atom+Function         Bfn.  Coefficient  Atom+Function  
  ----- ------------  ---------------      ----- ------------  ---------------
     4      0.461992  1 Li s                 34      0.461992  2 Li s          
     3      0.216291  1 Li s                 33      0.216291  2 Li s          

 Vector    4  Occ=0.000000D+00  E=-2.845883D-02
              MO Center=  7.0D-16, -1.3D-15, -2.0D-11, r^2= 1.9D+01
   Bfn.  Coefficient  Atom+Function         Bfn.  Coefficient  Atom+Function  
  ----- ------------  ---------------      ----- ------------  ---------------
     4      0.469298  1 Li s                 34     -0.469298  2 Li s          
    13     -0.212504  1 Li pz                43     -0.212504  2 Li pz         
     3      0.209071  1 Li s                 33     -0.209071  2 Li s          

 Vector    5  Occ=0.000000D+00  E= 2.624154D-02
              MO Center= -4.3D-15, -7.4D-15, -7.9D-11, r^2= 2.2D+01
   Bfn.  Coefficient  Atom+Function         Bfn.  Coefficient  Atom+Function  
  ----- ------------  ---------------      ----- ------------  ---------------
    12      0.462467  1 Li py                42      0.462467  2 Li py         
    11      0.355538  1 Li px                41      0.355538  2 Li px         

 Vector    6  Occ=0.000000D+00  E= 2.624154D-02
              MO Center=  6.2D-15, -5.3D-15, -7.9D-11, r^2= 2.2D+01
   Bfn.  Coefficient  Atom+Function         Bfn.  Coefficient  Atom+Function  
  ----- ------------  ---------------      ----- ------------  ---------------
    11      0.462467  1 Li px                41      0.462467  2 Li px         
    12     -0.355538  1 Li py                42     -0.355538  2 Li py         

 Vector    7  Occ=0.000000D+00  E= 2.814835D-02
              MO Center=  5.2D-15,  3.8D-15, -7.3D-11, r^2= 2.7D+01
   Bfn.  Coefficient  Atom+Function         Bfn.  Coefficient  Atom+Function  
  ----- ------------  ---------------      ----- ------------  ---------------
    13      0.591189  1 Li pz                43     -0.591189  2 Li pz         
     4     -0.370059  1 Li s                 34     -0.370059  2 Li s          

 Vector    8  Occ=0.000000D+00  E= 4.205197D-02
              MO Center=  4.0D-16,  1.2D-17,  7.8D-11, r^2= 2.8D+01
   Bfn.  Coefficient  Atom+Function         Bfn.  Coefficient  Atom+Function  
  ----- ------------  ---------------      ----- ------------  ---------------
    11      0.637068  1 Li px                41     -0.637068  2 Li px         
    12     -0.604586  1 Li py                42      0.604586  2 Li py         

 Vector    9  Occ=0.000000D+00  E= 4.205197D-02
              MO Center=  4.1D-15,  3.0D-15,  7.8D-11, r^2= 2.8D+01
   Bfn.  Coefficient  Atom+Function         Bfn.  Coefficient  Atom+Function  
  ----- ------------  ---------------      ----- ------------  ---------------
    12      0.637068  1 Li py                42     -0.637068  2 Li py         
    11      0.604586  1 Li px                41     -0.604586  2 Li px         

 Vector   10  Occ=0.000000D+00  E= 5.144842D-02
              MO Center= -2.8D-15, -5.1D-15,  7.2D-11, r^2= 4.0D+01
   Bfn.  Coefficient  Atom+Function         Bfn.  Coefficient  Atom+Function  
  ----- ------------  ---------------      ----- ------------  ---------------
    13      1.434570  1 Li pz                43      1.434570  2 Li pz         
     4      0.949032  1 Li s                 34     -0.949032  2 Li s          
    10     -0.215021  1 Li pz                40     -0.215021  2 Li pz         

 Vector   11  Occ=0.000000D+00  E= 1.146991D-01
              MO Center= -1.6D-16, -4.7D-16, -9.9D-11, r^2= 2.6D+01
   Bfn.  Coefficient  Atom+Function         Bfn.  Coefficient  Atom+Function  
  ----- ------------  ---------------      ----- ------------  ---------------
    10      0.970721  1 Li pz                40     -0.970721  2 Li pz         
    13     -0.885404  1 Li pz                43      0.885404  2 Li pz         
     4      0.414038  1 Li s                 34      0.414038  2 Li s          
     3     -0.329506  1 Li s                 33     -0.329506  2 Li s          

 Vector   12  Occ=0.000000D+00  E= 1.230127D-01
              MO Center= -8.7D-16, -2.3D-15, -3.3D-10, r^2= 2.0D+01
   Bfn.  Coefficient  Atom+Function         Bfn.  Coefficient  Atom+Function  
  ----- ------------  ---------------      ----- ------------  ---------------
     9      0.858050  1 Li py                39      0.858050  2 Li py         
    12     -0.635074  1 Li py                42     -0.635074  2 Li py         
     8      0.437832  1 Li px                38      0.437832  2 Li px         
    11     -0.324055  1 Li px                41     -0.324055  2 Li px         

 Vector   13  Occ=0.000000D+00  E= 1.230127D-01
              MO Center=  3.1D-15, -3.4D-15, -3.3D-10, r^2= 2.0D+01
   Bfn.  Coefficient  Atom+Function         Bfn.  Coefficient  Atom+Function  
  ----- ------------  ---------------      ----- ------------  ---------------
     8      0.858050  1 Li px                38      0.858050  2 Li px         
    11     -0.635074  1 Li px                41     -0.635074  2 Li px         
     9     -0.437832  1 Li py                39     -0.437832  2 Li py         
    12      0.324055  1 Li py                42      0.324055  2 Li py         

 Vector   14  Occ=0.000000D+00  E= 1.286617D-01
              MO Center= -2.2D-15, -3.5D-15,  3.3D-10, r^2= 2.2D+01
   Bfn.  Coefficient  Atom+Function         Bfn.  Coefficient  Atom+Function  
  ----- ------------  ---------------      ----- ------------  ---------------
     8      0.787121  1 Li px                38     -0.787121  2 Li px         
    11     -0.770831  1 Li px                41      0.770831  2 Li px         
     9      0.605282  1 Li py                39     -0.605282  2 Li py         
    12     -0.592755  1 Li py                42      0.592755  2 Li py         

 Vector   15  Occ=0.000000D+00  E= 1.286617D-01
              MO Center=  1.9D-15, -2.3D-15,  3.3D-10, r^2= 2.2D+01
   Bfn.  Coefficient  Atom+Function         Bfn.  Coefficient  Atom+Function  
  ----- ------------  ---------------      ----- ------------  ---------------
     9      0.787121  1 Li py                39     -0.787121  2 Li py         
    12     -0.770831  1 Li py                42      0.770831  2 Li py         
     8     -0.605282  1 Li px                38      0.605282  2 Li px         
    11      0.592755  1 Li px                41     -0.592755  2 Li px         

 Vector   16  Occ=0.000000D+00  E= 1.299157D-01
              MO Center=  9.0D-16,  3.1D-15,  1.0D-10, r^2= 1.9D+01
   Bfn.  Coefficient  Atom+Function         Bfn.  Coefficient  Atom+Function  
  ----- ------------  ---------------      ----- ------------  ---------------
    10      0.863337  1 Li pz                40      0.863337  2 Li pz         
    13     -0.702387  1 Li pz                43     -0.702387  2 Li pz         
    21     -0.200056  1 Li d  0              51      0.200056  2 Li d  0       

 Vector   17  Occ=0.000000D+00  E= 1.491315D-01
              MO Center= -4.4D-15,  5.9D-15, -7.4D-12, r^2= 1.5D+01
   Bfn.  Coefficient  Atom+Function         Bfn.  Coefficient  Atom+Function  
  ----- ------------  ---------------      ----- ------------  ---------------
     3      1.352109  1 Li s                 33      1.352109  2 Li s          
     4     -1.047092  1 Li s                 34     -1.047092  2 Li s          
     2      0.338881  1 Li s                 32      0.338881  2 Li s          
    10      0.262202  1 Li pz                40     -0.262202  2 Li pz         
    13     -0.214673  1 Li pz                43      0.214673  2 Li pz         

 Vector   18  Occ=0.000000D+00  E= 1.844039D-01
              MO Center=  1.1D-16,  9.9D-16,  7.4D-12, r^2= 1.8D+01
   Bfn.  Coefficient  Atom+Function         Bfn.  Coefficient  Atom+Function  
  ----- ------------  ---------------      ----- ------------  ---------------
     4      2.185275  1 Li s                 34     -2.185275  2 Li s          
     3     -1.719734  1 Li s                 33      1.719734  2 Li s          
    13      0.952445  1 Li pz                43      0.952445  2 Li pz         
     2     -0.364167  1 Li s                 32      0.364167  2 Li s          
    10     -0.253485  1 Li pz                40     -0.253485  2 Li pz         

 Vector   19  Occ=0.000000D+00  E= 2.061971D-01
              MO Center= -4.9D-16, -5.3D-16, -2.5D-11, r^2= 1.3D+01
   Bfn.  Coefficient  Atom+Function         Bfn.  Coefficient  Atom+Function  
  ----- ------------  ---------------      ----- ------------  ---------------
    20      0.604114  1 Li d -1              50     -0.604114  2 Li d -1       
    22     -0.475641  1 Li d  1              52      0.475641  2 Li d  1       

 Vector   20  Occ=0.000000D+00  E= 2.061971D-01
              MO Center= -1.1D-15,  9.7D-16, -2.5D-11, r^2= 1.3D+01
   Bfn.  Coefficient  Atom+Function         Bfn.  Coefficient  Atom+Function  
  ----- ------------  ---------------      ----- ------------  ---------------
    22      0.604114  1 Li d  1              52     -0.604114  2 Li d  1       
    20      0.475641  1 Li d -1              50     -0.475641  2 Li d -1       

 Vector   21  Occ=0.000000D+00  E= 2.210390D-01
              MO Center= -2.9D-15,  2.8D-15, -1.7D-10, r^2= 1.4D+01
   Bfn.  Coefficient  Atom+Function         Bfn.  Coefficient  Atom+Function  
  ----- ------------  ---------------      ----- ------------  ---------------
    19      0.805478  1 Li d -2              49      0.805478  2 Li d -2       
    14     -0.159213  1 Li d -2              44     -0.159213  2 Li d -2       

 Vector   22  Occ=0.000000D+00  E= 2.210390D-01
              MO Center=  3.0D-16,  1.2D-15, -1.7D-10, r^2= 1.4D+01
   Bfn.  Coefficient  Atom+Function         Bfn.  Coefficient  Atom+Function  
  ----- ------------  ---------------      ----- ------------  ---------------
    23      0.805478  1 Li d  2              53      0.805478  2 Li d  2       
    18     -0.159213  1 Li d  2              48     -0.159213  2 Li d  2       

 Vector   23  Occ=0.000000D+00  E= 2.325128D-01
              MO Center= -6.0D-16,  1.7D-15,  1.7D-10, r^2= 1.4D+01
   Bfn.  Coefficient  Atom+Function         Bfn.  Coefficient  Atom+Function  
  ----- ------------  ---------------      ----- ------------  ---------------
    23      0.803179  1 Li d  2              53     -0.803179  2 Li d  2       
    19     -0.158007  1 Li d -2              49      0.158007  2 Li d -2       

 Vector   24  Occ=0.000000D+00  E= 2.325128D-01
              MO Center= -1.1D-15, -3.9D-16,  1.7D-10, r^2= 1.4D+01
   Bfn.  Coefficient  Atom+Function         Bfn.  Coefficient  Atom+Function  
  ----- ------------  ---------------      ----- ------------  ---------------
    19      0.803179  1 Li d -2              49     -0.803179  2 Li d -2       
    23      0.158007  1 Li d  2              53     -0.158007  2 Li d  2       

 Vector   25  Occ=0.000000D+00  E= 2.340772D-01
              MO Center=  1.2D-15,  8.0D-16, -9.9D-12, r^2= 1.4D+01
   Bfn.  Coefficient  Atom+Function         Bfn.  Coefficient  Atom+Function  
  ----- ------------  ---------------      ----- ------------  ---------------
    21      0.705202  1 Li d  0              51      0.705202  2 Li d  0       
    10     -0.347631  1 Li pz                40      0.347631  2 Li pz         
     3     -0.339962  1 Li s                 33     -0.339962  2 Li s          
    13      0.298449  1 Li pz                43     -0.298449  2 Li pz         

 Vector   26  Occ=0.000000D+00  E= 2.675556D-01
              MO Center=  3.5D-16, -3.6D-16,  2.6D-11, r^2= 1.5D+01
   Bfn.  Coefficient  Atom+Function         Bfn.  Coefficient  Atom+Function  
  ----- ------------  ---------------      ----- ------------  ---------------
    22      0.857528  1 Li d  1              52      0.857528  2 Li d  1       
    11     -0.209443  1 Li px                41      0.209443  2 Li px         

 Vector   27  Occ=0.000000D+00  E= 2.675556D-01
              MO Center=  1.1D-15,  2.3D-16,  2.6D-11, r^2= 1.5D+01
   Bfn.  Coefficient  Atom+Function         Bfn.  Coefficient  Atom+Function  
  ----- ------------  ---------------      ----- ------------  ---------------
    20      0.857528  1 Li d -1              50      0.857528  2 Li d -1       
    12      0.209443  1 Li py                42     -0.209443  2 Li py         

 Vector   28  Occ=0.000000D+00  E= 3.196378D-01
              MO Center= -1.5D-16, -4.8D-17,  7.1D-12, r^2= 1.7D+01
   Bfn.  Coefficient  Atom+Function         Bfn.  Coefficient  Atom+Function  
  ----- ------------  ---------------      ----- ------------  ---------------
     4      1.397315  1 Li s                 34     -1.397315  2 Li s          
    21      0.978802  1 Li d  0              51     -0.978802  2 Li d  0       
    13      0.773085  1 Li pz                43      0.773085  2 Li pz         
     3     -0.762077  1 Li s                 33      0.762077  2 Li s          
     7      0.295617  1 Li pz                37      0.295617  2 Li pz         

 Vector   29  Occ=0.000000D+00  E= 4.422381D-01
              MO Center=  9.9D-16, -1.5D-15, -2.2D-10, r^2= 1.2D+01
   Bfn.  Coefficient  Atom+Function         Bfn.  Coefficient  Atom+Function  
  ----- ------------  ---------------      ----- ------------  ---------------
     9     -1.002350  1 Li py                39     -1.002350  2 Li py         
     6      0.960058  1 Li py                36      0.960058  2 Li py         
    12      0.395187  1 Li py                42      0.395187  2 Li py         
     8      0.233661  1 Li px                38      0.233661  2 Li px         
     5     -0.223802  1 Li px                35     -0.223802  2 Li px         

 Vector   30  Occ=0.000000D+00  E= 4.422381D-01
              MO Center=  1.1D-16,  1.0D-15, -2.2D-10, r^2= 1.2D+01
   Bfn.  Coefficient  Atom+Function         Bfn.  Coefficient  Atom+Function  
  ----- ------------  ---------------      ----- ------------  ---------------
     8     -1.002350  1 Li px                38     -1.002350  2 Li px         
     5      0.960058  1 Li px                35      0.960058  2 Li px         
    11      0.395187  1 Li px                41      0.395187  2 Li px         
     9     -0.233661  1 Li py                39     -0.233661  2 Li py         
     6      0.223802  1 Li py                36      0.223802  2 Li py         

 Vector   31  Occ=0.000000D+00  E= 4.458576D-01
              MO Center=  9.7D-16, -2.1D-16, -3.0D-11, r^2= 1.3D+01
   Bfn.  Coefficient  Atom+Function         Bfn.  Coefficient  Atom+Function  
  ----- ------------  ---------------      ----- ------------  ---------------
    10     -1.015789  1 Li pz                40      1.015789  2 Li pz         
     7      0.978507  1 Li pz                37     -0.978507  2 Li pz         
    13      0.471424  1 Li pz                43     -0.471424  2 Li pz         

 Vector   32  Occ=0.000000D+00  E= 4.556480D-01
              MO Center= -1.4D-15, -6.6D-16,  2.2D-10, r^2= 1.3D+01
   Bfn.  Coefficient  Atom+Function         Bfn.  Coefficient  Atom+Function  
  ----- ------------  ---------------      ----- ------------  ---------------
     9      1.029779  1 Li py                39     -1.029779  2 Li py         
     6     -0.933285  1 Li py                36      0.933285  2 Li py         
    12     -0.511868  1 Li py                42      0.511868  2 Li py         
     8     -0.386995  1 Li px                38      0.386995  2 Li px         
     5      0.350732  1 Li px                35     -0.350732  2 Li px         

 Vector   33  Occ=0.000000D+00  E= 4.556480D-01
              MO Center= -6.8D-17,  6.4D-16,  2.2D-10, r^2= 1.3D+01
   Bfn.  Coefficient  Atom+Function         Bfn.  Coefficient  Atom+Function  
  ----- ------------  ---------------      ----- ------------  ---------------
     8      1.029779  1 Li px                38     -1.029779  2 Li px         
     5     -0.933285  1 Li px                35      0.933285  2 Li px         
    11     -0.511868  1 Li px                41      0.511868  2 Li px         
     9      0.386995  1 Li py                39     -0.386995  2 Li py         
     6     -0.350732  1 Li py                36      0.350732  2 Li py         

 Vector   34  Occ=0.000000D+00  E= 4.987703D-01
              MO Center= -2.8D-16,  4.0D-16,  3.7D-11, r^2= 1.2D+01
   Bfn.  Coefficient  Atom+Function         Bfn.  Coefficient  Atom+Function  
  ----- ------------  ---------------      ----- ------------  ---------------
    10      1.215722  1 Li pz                40      1.215722  2 Li pz         
     7     -0.960726  1 Li pz                37     -0.960726  2 Li pz         
     4      0.371223  1 Li s                 34     -0.371223  2 Li s          
    21      0.315947  1 Li d  0              51     -0.315947  2 Li d  0       
    13     -0.291653  1 Li pz                43     -0.291653  2 Li pz         

 Vector   35  Occ=0.000000D+00  E= 6.962445D-01
              MO Center=  4.9D-15,  1.4D-16, -4.0D-11, r^2= 1.2D+01
   Bfn.  Coefficient  Atom+Function         Bfn.  Coefficient  Atom+Function  
  ----- ------------  ---------------      ----- ------------  ---------------
    17      0.732766  1 Li d  1              47     -0.732766  2 Li d  1       
    22     -0.415093  1 Li d  1              52      0.415093  2 Li d  1       
    15      0.402793  1 Li d -1              45     -0.402793  2 Li d -1       
    28     -0.327069  1 Li f  1              58     -0.327069  2 Li f  1       
    20     -0.228171  1 Li d -1              50      0.228171  2 Li d -1       


 center of mass
 --------------
 x =   0.00000000 y =   0.00000000 z =   0.00000000

 moments of inertia (a.u.)
 ------------------
         358.026493513715           0.000000000000           0.000000000000
           0.000000000000         358.026493513715           0.000000000000
           0.000000000000           0.000000000000           0.000000000000

  Mulliken analysis of the total density
  --------------------------------------

    Atom       Charge   Shell Charges
 -----------   ------   -------------------------------------------------------
    1 Li   3     3.00   2.00 -0.01  0.27  0.71  0.00  0.01  0.02 -0.00  0.00  0.00
    2 Li   3     3.00   2.00 -0.01  0.27  0.71  0.00  0.01  0.02 -0.00  0.00  0.00

       Multipole analysis of the density wrt the origin
       ------------------------------------------------

     L   x y z        total         open         nuclear
     -   - - -        -----         ----         -------
     0   0 0 0     -0.000000      0.000000      6.000000

     1   1 0 0      0.000000      0.000000      0.000000
     1   0 1 0     -0.000000      0.000000      0.000000
     1   0 0 1     -0.000000      0.000000      0.000000

     2   2 0 0    -14.976960      0.000000      0.000000
     2   1 1 0      0.000000      0.000000      0.000000
     2   1 0 1      0.000000      0.000000      0.000000
     2   0 2 0    -14.976960      0.000000      0.000000
     2   0 1 1      0.000000      0.000000      0.000000
     2   0 0 2      3.177480      0.000000    153.090006


 Parallel integral file used       9 records with       0 large values

                   NWChem Extensible Many-Electron Theory Module
                   ---------------------------------------------

              ======================================================
                   This portion of the program was automatically
                  generated by a Tensor Contraction Engine (TCE).
                  The development of this portion of the program
                 and TCE was supported by US Department of Energy,
                Office of Science, Office of Basic Energy Science.
                      TCE is a product of Battelle and PNNL.
              Please cite: S.Hirata, J.Phys.Chem.A 107, 9887 (2003).
              ======================================================

                                    Li2-REMOVE


            General Information
            -------------------
      Number of processors :     1
         Wavefunction type : Restricted Hartree-Fock
          No. of electrons :     6
           Alpha electrons :     3
            Beta electrons :     3
           No. of orbitals :   120
            Alpha orbitals :    60
             Beta orbitals :    60
        Alpha frozen cores :     0
         Beta frozen cores :     0
     Alpha frozen virtuals :     0
      Beta frozen virtuals :     0
         Spin multiplicity : singlet 
    Number of AO functions :    60
       Number of AO shells :    20
        Use of symmetry is : off
      Symmetry adaption is : off
         Schwarz screening : 0.10D-09

          Correlation Information
          -----------------------
          Calculation type : Coupled-cluster singles & doubles                           
   Perturbative correction : none                                                        
            Max iterations :      200
        Residual threshold : 0.10D-05
     T(0) DIIS level shift : 0.00D+00
     L(0) DIIS level shift : 0.00D+00
     T(1) DIIS level shift : 0.00D+00
     L(1) DIIS level shift : 0.00D+00
     T(R) DIIS level shift : 0.00D+00
     T(I) DIIS level shift : 0.00D+00
   CC-T/L Amplitude update :  5-th order DIIS
                I/O scheme : Global Array Library
        L-threshold :  0.10D-05
        EOM-threshold :  0.10D-05
 no EOMCCSD initial starts read in
 TCE RESTART OPTIONS
 READ_INT:   F
 WRITE_INT:  F
 READ_TA:    F
 WRITE_TA:   F
 READ_XA:    F
 WRITE_XA:   F
 READ_IN3:   F
 WRITE_IN3:  F
 SLICE:      F
 D4D5:       F
 quantumc:   F
 qrotation:  F
 qducc:      T
 nacto:                         0
 nrotv:                         0
 nrot:                          0

            Memory Information
            ------------------
          Available GA space size is    1610609136 doubles
          Available MA space size is    1610610012 doubles

 Maximum block size supplied by input
 Maximum block size         5 doubles

 tile_dim =      5

 Block   Spin    Irrep     Size     Offset   Alpha
 -------------------------------------------------
   1    alpha     a      3 doubles       0       1
   2    beta      a      3 doubles       3       1
   3    alpha     a      4 doubles       6       3
   4    alpha     a      5 doubles      10       4
   5    alpha     a      5 doubles      15       5
   6    alpha     a      5 doubles      20       6
   7    alpha     a      4 doubles      25       7
   8    alpha     a      5 doubles      29       8
   9    alpha     a      5 doubles      34       9
  10    alpha     a      5 doubles      39      10
  11    alpha     a      4 doubles      44      11
  12    alpha     a      5 doubles      48      12
  13    alpha     a      5 doubles      53      13
  14    alpha     a      5 doubles      58      14
  15    beta      a      4 doubles      63       3
  16    beta      a      5 doubles      67       4
  17    beta      a      5 doubles      72       5
  18    beta      a      5 doubles      77       6
  19    beta      a      4 doubles      82       7
  20    beta      a      5 doubles      86       8
  21    beta      a      5 doubles      91       9
  22    beta      a      5 doubles      96      10
  23    beta      a      4 doubles     101      11
  24    beta      a      5 doubles     105      12
  25    beta      a      5 doubles     110      13
  26    beta      a      5 doubles     115      14

 Global array virtual files algorithm will be used

 Parallel file system coherency ......... OK

 Integral file          = ./Li2-REMOVE.aoints.0
 Record size in doubles =    65536    No. of integs per rec  =    43688
 Max. records in memory =       54    Max. records in file   =  1546361
 No. of bits per label  =        8    No. of bits per value  =       64


 #quartets = 2.130D+04 #integrals = 3.658D+05 #direct =  0.0% #cached =100.0%


 Fock matrix recomputed
 1-e file size   =             3600
 1-e file name   = ./Li2-REMOVE.f1
 Cpu & wall time / sec            0.2            0.2
 4-electron integrals stored in orbital form

 v2    file size   =          1905240
 4-index algorithm nr.  13 is used
 imaxsize =       30
 imaxsize ichop =        0
 Cpu & wall time / sec            4.6            4.6
 T1-number-of-tasks                   12

 t1 file size   =              171
 t1 file name   = ./Li2-REMOVE.t1
 t1 file handle =       -998
 T2-number-of-boxes                  222

 t2 file size   =            45090
 t2 file name   = ./Li2-REMOVE.t2
 t2 file handle =       -996

 CCSD iterations
 -----------------------------------------------------------------
 Iter          Residuum       Correlation     Cpu    Wall    V2*C2
 -----------------------------------------------------------------
    1   0.0910981634604  -0.0475963900309     1.8     1.9     0.5
    2   0.0290959526852  -0.0569132724875     1.8     1.9     0.5
    3   0.0183258625220  -0.0622508836933     1.8     1.9     0.6
    4   0.0129204314441  -0.0648334373004     1.8     1.9     0.5
    5   0.0090849318338  -0.0666868309163     1.8     1.9     0.5
 MICROCYCLE DIIS UPDATE:                    5                    5
    6   0.0017643232808  -0.0702947207637     1.8     2.0     0.5
    7   0.0010350575604  -0.0703376358040     1.9     2.0     0.6
    8   0.0005800031519  -0.0703625566315     1.9     2.0     0.6
    9   0.0004381386769  -0.0703761988687     1.9     2.0     0.6
   10   0.0002945400170  -0.0703994913022     1.8     2.0     0.5
 MICROCYCLE DIIS UPDATE:                   10                    5
   11   0.0000712385568  -0.0704496927518     1.8     1.9     0.5
   12   0.0000377684341  -0.0704534373055     1.8     1.9     0.6
   13   0.0000221994841  -0.0704589297230     1.8     1.9     0.6
   14   0.0000150786148  -0.0704609797267     1.8     1.9     0.5
   15   0.0000099363340  -0.0704628859650     1.8     2.0     0.6
 MICROCYCLE DIIS UPDATE:                   15                    5
   16   0.0000026225175  -0.0704661454665     1.9     2.0     0.5
   17   0.0000015955126  -0.0704662095453     1.8     2.0     0.6
   18   0.0000008894662  -0.0704663003277     1.8     1.9     0.5
 -----------------------------------------------------------------
 Iterations converged
 CCSD correlation energy / hartree =        -0.070466300327657
 CCSD total energy / hartree       =       -14.894860333197380

 Singles contributions

 Doubles contributions
     4a   (alpha)     4a   (beta ) ---     3a   (alpha)     3a   (beta )       -0.5724325853
     4a   (alpha)    10a   (beta ) ---     3a   (alpha)     3a   (beta )       -0.1717072748
    10a   (alpha)     4a   (beta ) ---     3a   (alpha)     3a   (beta )       -0.1717072748
 Ground state specification:
 exp(T)|Ref>~(1+T)|Ref>
 ------- a(p)+/a(q) strings ----------

 singles norm

 doubles norm

 Reference string
  0.84921415254337906      :(1a)+ (2a)+ (3a)+ (1b)+ (2b)+ (3b)+ |0>

 Singles strings

 Doubles strings
 -0.48611785282260439      :(4a)+ (4b)+ (3b)  (3a)  (1a)+ (2a)+ (3a)+ (1b)+ (2b)+ (3b)+ |0>
 -0.14581624787240180      :(4a)+ (10b)+(3b)  (3a)  (1a)+ (2a)+ (3a)+ (1b)+ (2b)+ (3b)+ |0>
 -0.14581624787240177      :(10a)+(4b)+ (3b)  (3a)  (1a)+ (2a)+ (3a)+ (1b)+ (2b)+ (3b)+ |0>
 -------------------------------------
 enrep_tce =   0.89087078956178178     
  EHF(total)         =       -14.82439403
  Shift (HFtot-HFA)  =         0.00000000
 ALL OCCUPIED ORBITALS ARE ACTIVE IN DUCC --> NO SHIFT
 Number of active orbitals                   10
 Number of active alpha electrons                    3
 Number of active beta electrons                    3
  nos                     6
  nvs                   114
 noas                     3
 nobs                     3
 nvas                    57
 nvbs                    57
 nactv                     7
 From DUCC CCSD corr. ene.  -7.0466300327553702E-002
 From DUCC CCSD corr. ene.-e-part   4.7708669441956904E-002
 begin_one_electron_integrals
    1    1        -4.7387143858
    1    2        -0.0000000001
    1    3        -0.0000003533
    1    4         0.0997169740
    1    7         0.0000000332
    1   10         0.0577385485
    2    1        -0.0000000001
    2    2        -4.7386776405
    2    3         0.1152333077
    2    4         0.0000003057
    2    7        -0.0108346951
    2   10         0.0000001770
    3    1        -0.0000003533
    3    2         0.1152333077
    3    3        -1.1266955899
    3    7        -0.0416052663
    4    1         0.0997169740
    4    2         0.0000003057
    4    4        -0.9773177887
    4   10        -0.1989456520
    5    5        -0.7236104675
    6    6        -0.7236104675
    7    1         0.0000000332
    7    2        -0.0108346951
    7    3        -0.0416052663
    7    7        -0.7547727637
    8    8        -0.6650760623
    9    9        -0.6650760623
   10    1         0.0577385485
   10    2         0.0000001770
   10    4        -0.1989456520
   10   10        -0.6227429727
 end_one_electron_integrals
 begin_two_electron_integrals
    1    1    1    1        0.8680002799
    2    1    1    1       -0.0000047148
    2    2    1    1        0.8679798608
    2    1    2    1        0.7690112582
    2    2    2    1        0.0000047149
    2    2    2    2        0.8679652737
    3    1    1    1        0.0000005216
    3    2    1    1       -0.0566506368
    3    3    1    1        0.2075560857
    3    1    2    1       -0.0567523896
    3    1    2    2       -0.0000001743
    3    2    2    1       -0.0000001740
    3    2    2    2       -0.0566500874
    3    3    2    2        0.2075564700
    3    1    3    1        0.0049088894
    3    2    3    2        0.0049085124
    3    3    3    1        0.0000000039
    3    3    3    2       -0.0012824467
    3    3    3    3        0.1705277462
    4    1    1    1       -0.0504680336
    4    2    1    1        0.0000001536
    4    3    1    1       -0.0000005423
    4    4    1    1        0.1807103024
    4    1    2    1        0.0000001541
    4    1    2    2       -0.0504669073
    4    2    2    1       -0.0502789035
    4    2    2    2       -0.0000004630
    4    3    2    1        0.0884491507
    4    3    2    2        0.0000005423
    4    4    2    2        0.1807098868
    4    1    3    1       -0.0000000332
    4    1    3    2        0.0054122086
    4    1    3    3       -0.0016054210
    4    2    3    1        0.0054125430
    4    2    3    2        0.0000000332
    4    2    3    3       -0.0000000049
    4    3    3    1       -0.0012941727
    4    3    3    2       -0.0000000040
    4    4    3    1        0.0000000028
    4    4    3    2       -0.0009287881
    4    4    3    3        0.1443380731
    4    1    4    1        0.0061271965
    4    2    4    2        0.0061273537
    4    3    4    1        0.0000000045
    4    3    4    2       -0.0014609248
    4    3    4    3        0.0522069401
    4    4    4    1       -0.0006458171
    4    4    4    2       -0.0000000020
    4    4    4    4        0.1415016440
    5    5    1    1        0.1296531987
    5    5    2    2        0.1296531438
    5    5    3    1        0.0000000001
    5    5    3    2       -0.0000453534
    5    5    3    3        0.1248368327
    5    5    4    1       -0.0001351205
    5    5    4    2       -0.0000000004
    5    5    4    4        0.1126886010
    5    1    5    1        0.0003612956
    5    2    5    2        0.0003637737
    5    3    5    1       -0.0000000025
    5    3    5    2        0.0008045736
    5    3    5    3        0.0163241138
    5    4    5    1        0.0006015173
    5    4    5    2        0.0000000018
    5    4    5    4        0.0100034208
    5    5    5    5        0.1129456955
    6    6    1    1        0.1296531987
    6    6    2    2        0.1296531438
    6    6    3    1        0.0000000001
    6    6    3    2       -0.0000453534
    6    6    3    3        0.1248368327
    6    6    4    1       -0.0001351205
    6    6    4    2       -0.0000000004
    6    6    4    4        0.1126886010
    6    6    5    5        0.1028171917
    6    1    6    1        0.0003612956
    6    2    6    2        0.0003637737
    6    3    6    1       -0.0000000025
    6    3    6    2        0.0008045736
    6    3    6    3        0.0163241138
    6    4    6    1        0.0006015173
    6    4    6    2        0.0000000018
    6    4    6    4        0.0100034208
    6    5    6    5        0.0050642519
    6    6    6    6        0.1129456955
    7    1    1    1       -0.0000000371
    7    2    1    1        0.0043989097
    7    3    1    1        0.0065505145
    7    4    1    1        0.0000002203
    7    7    1    1        0.1378134329
    7    1    2    1        0.0038532347
    7    1    2    2        0.0000000101
    7    2    2    1        0.0000000118
    7    2    2    2        0.0043982639
    7    3    2    2        0.0065507832
    7    4    2    1       -0.0359280688
    7    4    2    2       -0.0000002203
    7    7    2    2        0.1378128041
    7    1    3    1       -0.0003431422
    7    1    3    3       -0.0000000025
    7    2    3    2       -0.0003422887
    7    2    3    3        0.0008013491
    7    3    3    1       -0.0000000008
    7    3    3    2        0.0002677549
    7    3    3    3        0.0114260454
    7    4    3    1        0.0003080979
    7    4    3    2        0.0000000009
    7    7    3    1        0.0000000004
    7    7    3    2       -0.0001299234
    7    7    3    3        0.1269901730
    7    1    4    1        0.0000000036
    7    1    4    2       -0.0005814340
    7    1    4    3       -0.0004102310
    7    1    4    4        0.0000000010
    7    2    4    1       -0.0005837249
    7    2    4    2       -0.0000000036
    7    2    4    3       -0.0000000013
    7    2    4    4       -0.0003302888
    7    3    4    1       -0.0002514992
    7    3    4    2       -0.0000000008
    7    3    4    4       -0.0015831441
    7    4    4    1        0.0000000007
    7    4    4    2       -0.0002379123
    7    4    4    3       -0.0268982106
    7    7    4    1       -0.0000533684
    7    7    4    2       -0.0000000002
    7    7    4    4        0.1223709873
    7    1    5    5       -0.0000000007
    7    2    5    5        0.0002260380
    7    3    5    5        0.0073330271
    7    5    5    1        0.0000000001
    7    5    5    2       -0.0000345049
    7    5    5    3        0.0011003365
    7    7    5    5        0.1028681199
    7    1    6    6       -0.0000000007
    7    2    6    6        0.0002260380
    7    3    6    6        0.0073330271
    7    6    6    1        0.0000000001
    7    6    6    2       -0.0000345049
    7    6    6    3        0.0011003365
    7    7    6    6        0.1028681199
    7    1    7    1        0.0005407995
    7    2    7    2        0.0005484482
    7    3    7    1       -0.0000000035
    7    3    7    2        0.0011333449
    7    3    7    3        0.0194802188
    7    4    7    1        0.0009556699
    7    4    7    2        0.0000000029
    7    4    7    4        0.0285568999
    7    5    7    5        0.0052671523
    7    6    7    6        0.0052671523
    7    7    7    1        0.0000000003
    7    7    7    2       -0.0000916641
    7    7    7    3        0.0005081265
    7    7    7    7        0.1161894336
    8    5    1    1        0.0000000269
    8    6    1    1       -0.0000002577
    8    8    1    1        0.1224435869
    8    5    2    1       -0.0043794023
    8    5    2    2       -0.0000000269
    8    6    2    1        0.0420278046
    8    6    2    2        0.0000002577
    8    8    2    2        0.1224435827
    8    5    3    1        0.0000134495
    8    6    3    1       -0.0001290708
    8    6    3    2       -0.0000000004
    8    8    3    1        0.0000000003
    8    8    3    2       -0.0000951753
    8    8    3    3        0.1145625942
    8    5    4    2       -0.0000018378
    8    5    4    3       -0.0031692835
    8    6    4    2        0.0000176368
    8    6    4    3        0.0304146585
    8    8    4    1       -0.0000673442
    8    8    4    2       -0.0000000002
    8    8    4    4        0.1105175888
    8    1    5    1        0.0000000002
    8    1    5    2       -0.0000391759
    8    1    5    3       -0.0000844705
    8    1    5    4        0.0000000002
    8    2    5    1       -0.0000389402
    8    2    5    2       -0.0000000002
    8    2    5    3       -0.0000000003
    8    2    5    4       -0.0000638423
    8    3    5    1       -0.0000726546
    8    3    5    2       -0.0000000002
    8    3    5    4       -0.0009457325
    8    4    5    1        0.0000000002
    8    4    5    2       -0.0000708752
    8    4    5    3       -0.0013319311
    8    7    5    1        0.0000155803
    8    7    5    4        0.0005428646
    8    8    5    5        0.0967692919
    8    1    6    1       -0.0000000023
    8    1    6    2        0.0003759589
    8    1    6    3        0.0008106383
    8    1    6    4       -0.0000000019
    8    2    6    1        0.0003736971
    8    2    6    2        0.0000000023
    8    2    6    3        0.0000000025
    8    2    6    4        0.0006126755
    8    3    6    1        0.0006972442
    8    3    6    2        0.0000000021
    8    3    6    4        0.0090759103
    8    4    6    1       -0.0000000021
    8    4    6    2        0.0006801680
    8    4    6    3        0.0127821417
    8    7    6    1       -0.0001495193
    8    7    6    2       -0.0000000005
    8    7    6    4       -0.0052097080
    8    8    6    5       -0.0009043904
    8    8    6    6        0.1053542147
    8    1    7    5        0.0000037875
    8    1    7    6       -0.0000363473
    8    2    7    6       -0.0000000001
    8    4    7    5        0.0002668792
    8    4    7    6       -0.0025611594
    8    5    7    1        0.0000225206
    8    5    7    4        0.0021087516
    8    6    7    1       -0.0002161238
    8    6    7    2       -0.0000000007
    8    6    7    4       -0.0202370535
    8    8    7    2       -0.0000003875
    8    8    7    3        0.0005654079
    8    8    7    7        0.1003631272
    8    1    8    1        0.0003947932
    8    2    8    2        0.0003926981
    8    3    8    1       -0.0000000022
    8    3    8    2        0.0007213692
    8    3    8    3        0.0086441991
    8    4    8    1        0.0006943022
    8    4    8    2        0.0000000021
    8    4    8    4        0.0145095977
    8    5    8    5        0.0036571353
    8    6    8    5       -0.0027375964
    8    6    8    6        0.0296437585
    8    7    8    1        0.0000000005
    8    7    8    2       -0.0001586914
    8    7    8    3       -0.0040463372
    8    7    8    7        0.0056526437
    8    8    8    8        0.1040299038
    9    5    1    1       -0.0000002577
    9    6    1    1       -0.0000000269
    9    9    1    1        0.1224435869
    9    5    2    1        0.0420278046
    9    5    2    2        0.0000002577
    9    6    2    1        0.0043794023
    9    6    2    2        0.0000000269
    9    9    2    2        0.1224435827
    9    5    3    1       -0.0001290708
    9    5    3    2       -0.0000000004
    9    6    3    1       -0.0000134495
    9    9    3    1        0.0000000003
    9    9    3    2       -0.0000951753
    9    9    3    3        0.1145625942
    9    5    4    2        0.0000176368
    9    5    4    3        0.0304146585
    9    6    4    2        0.0000018378
    9    6    4    3        0.0031692835
    9    9    4    1       -0.0000673442
    9    9    4    2       -0.0000000002
    9    9    4    4        0.1105175888
    9    1    5    1       -0.0000000023
    9    1    5    2        0.0003759589
    9    1    5    3        0.0008106383
    9    1    5    4       -0.0000000019
    9    2    5    1        0.0003736971
    9    2    5    2        0.0000000023
    9    2    5    3        0.0000000025
    9    2    5    4        0.0006126755
    9    3    5    1        0.0006972442
    9    3    5    2        0.0000000021
    9    3    5    4        0.0090759103
    9    4    5    1       -0.0000000021
    9    4    5    2        0.0006801680
    9    4    5    3        0.0127821417
    9    7    5    1       -0.0001495193
    9    7    5    2       -0.0000000005
    9    7    5    4       -0.0052097080
    9    8    5    5       -0.0009043904
    9    9    5    5        0.1053542147
    9    1    6    1       -0.0000000002
    9    1    6    2        0.0000391759
    9    1    6    3        0.0000844705
    9    1    6    4       -0.0000000002
    9    2    6    1        0.0000389402
    9    2    6    2        0.0000000002
    9    2    6    3        0.0000000003
    9    2    6    4        0.0000638423
    9    3    6    1        0.0000726546
    9    3    6    2        0.0000000002
    9    3    6    4        0.0009457325
    9    4    6    1       -0.0000000002
    9    4    6    2        0.0000708752
    9    4    6    3        0.0013319311
    9    7    6    1       -0.0000155803
    9    7    6    4       -0.0005428646
    9    8    6    5        0.0042924614
    9    8    6    6        0.0009043904
    9    9    6    5        0.0009043904
    9    9    6    6        0.0967692919
    9    1    7    5       -0.0000363473
    9    1    7    6       -0.0000037875
    9    2    7    5       -0.0000000001
    9    4    7    5       -0.0025611594
    9    4    7    6       -0.0002668792
    9    5    7    1       -0.0002161238
    9    5    7    2       -0.0000000007
    9    5    7    4       -0.0202370535
    9    6    7    1       -0.0000225206
    9    6    7    4       -0.0021087516
    9    9    7    2       -0.0000003875
    9    9    7    3        0.0005654079
    9    9    7    7        0.1003631272
    9    5    8    5       -0.0027375964
    9    5    8    6        0.0229000167
    9    6    8    5        0.0030866065
    9    6    8    6        0.0027375964
    9    9    8    8        0.0944875481
    9    1    9    1        0.0003947932
    9    2    9    2        0.0003926981
    9    3    9    1       -0.0000000022
    9    3    9    2        0.0007213692
    9    3    9    3        0.0086441991
    9    4    9    1        0.0006943022
    9    4    9    2        0.0000000021
    9    4    9    4        0.0145095977
    9    5    9    5        0.0296437585
    9    6    9    5        0.0027375964
    9    6    9    6        0.0036571353
    9    7    9    1        0.0000000005
    9    7    9    2       -0.0001586914
    9    7    9    3       -0.0040463372
    9    7    9    7        0.0056526437
    9    8    9    8        0.0047711778
    9    9    9    9        0.1040299038
   10    1    1    1       -0.0298313506
   10    2    1    1        0.0000000927
   10    3    1    1       -0.0000002718
   10    4    1    1        0.0419559650
   10    7    1    1       -0.0000001536
   10   10    1    1        0.1193089689
   10    1    2    1        0.0000000921
   10    1    2    2       -0.0298300638
   10    2    2    1       -0.0300367466
   10    2    2    2       -0.0000002756
   10    3    2    1        0.0443244053
   10    3    2    2        0.0000002718
   10    4    2    2        0.0419556809
   10    7    2    1        0.0250501901
   10    7    2    2        0.0000001536
   10   10    2    2        0.1193088723
   10    1    3    1       -0.0000000200
   10    1    3    2        0.0032633836
   10    1    3    3       -0.0004873055
   10    2    3    1        0.0032630065
   10    2    3    2        0.0000000200
   10    2    3    3       -0.0000000015
   10    3    3    1       -0.0006666890
   10    3    3    2       -0.0000000020
   10    4    3    1        0.0000000013
   10    4    3    2       -0.0004357384
   10    4    3    3        0.0283376372
   10    7    3    1       -0.0000076392
   10   10    3    1        0.0000000009
   10   10    3    2       -0.0003049515
   10   10    3    3        0.1072115556
   10    1    4    1        0.0035983093
   10    1    4    3        0.0000000034
   10    1    4    4       -0.0005854982
   10    2    4    2        0.0035998007
   10    2    4    3       -0.0011061958
   10    2    4    4       -0.0000000018
   10    3    4    1        0.0000000034
   10    3    4    2       -0.0010986401
   10    3    4    3        0.0216408926
   10    4    4    1       -0.0005700509
   10    4    4    2       -0.0000000017
   10    4    4    4        0.0160848414
   10    7    4    2       -0.0000032295
   10    7    4    3        0.0217668189
   10   10    4    1       -0.0003360334
   10   10    4    2       -0.0000000010
   10   10    4    4        0.1054521245
   10    1    5    5        0.0000702671
   10    2    5    5        0.0000000002
   10    4    5    5        0.0145650838
   10    5    5    1        0.0002791689
   10    5    5    2        0.0000000009
   10    5    5    4        0.0018233712
   10    8    5    2       -0.0000267530
   10    8    5    3       -0.0002778926
   10    9    5    1       -0.0000000008
   10    9    5    2        0.0002567405
   10    9    5    3        0.0026668515
   10   10    5    5        0.0905485866
   10    1    6    6        0.0000702671
   10    2    6    6        0.0000000002
   10    4    6    6        0.0145650838
   10    6    6    1        0.0002791689
   10    6    6    2        0.0000000009
   10    6    6    4        0.0018233712
   10    8    6    1       -0.0000000008
   10    8    6    2        0.0002567405
   10    8    6    3        0.0026668515
   10    9    6    2        0.0000267530
   10    9    6    3        0.0002778926
   10   10    6    6        0.0905485866
   10    1    7    1        0.0000000002
   10    1    7    2       -0.0000324187
   10    1    7    3        0.0004959517
   10    1    7    4       -0.0000000012
   10    1    7    7       -0.0000857467
   10    2    7    1       -0.0000353948
   10    2    7    2       -0.0000000002
   10    2    7    3        0.0000000015
   10    2    7    4        0.0003780753
   10    2    7    7       -0.0000000003
   10    3    7    1        0.0003696225
   10    3    7    2        0.0000000011
   10    3    7    4       -0.0043970695
   10    4    7    1       -0.0000000011
   10    4    7    2        0.0003683219
   10    4    7    3        0.0077676528
   10    4    7    7        0.0070388394
   10    7    7    1        0.0000085851
   10    7    7    4       -0.0196693642
   10    8    7    5       -0.0003117872
   10    8    7    6        0.0029921274
   10    9    7    5        0.0029921274
   10    9    7    6        0.0003117872
   10   10    7    1       -0.0000000005
   10   10    7    2        0.0001696757
   10   10    7    3       -0.0007055455
   10   10    7    7        0.1023491880
   10    1    8    6        0.0000000003
   10    1    8    8       -0.0000222038
   10    2    8    5        0.0000096789
   10    2    8    6       -0.0000928851
   10    3    8    5       -0.0011236363
   10    3    8    6        0.0107831992
   10    4    8    8        0.0097136919
   10    5    8    2       -0.0000293423
   10    5    8    3       -0.0002232580
   10    5    8    7       -0.0001880233
   10    6    8    1       -0.0000000009
   10    6    8    2        0.0002815889
   10    6    8    3        0.0021425396
   10    6    8    7        0.0018044034
   10    7    8    5       -0.0018531959
   10    7    8    6        0.0177845631
   10    8    8    1        0.0002581745
   10    8    8    2        0.0000000008
   10    8    8    4        0.0002920634
   10   10    8    8        0.0905194053
   10    1    9    5        0.0000000003
   10    1    9    9       -0.0000222038
   10    2    9    5       -0.0000928851
   10    2    9    6       -0.0000096789
   10    3    9    5        0.0107831992
   10    3    9    6        0.0011236363
   10    4    9    9        0.0097136919
   10    5    9    1       -0.0000000009
   10    5    9    2        0.0002815889
   10    5    9    3        0.0021425396
   10    5    9    7        0.0018044034
   10    6    9    2        0.0000293423
   10    6    9    3        0.0002232580
   10    6    9    7        0.0001880233
   10    7    9    5        0.0177845631
   10    7    9    6        0.0018531959
   10    9    9    1        0.0002581745
   10    9    9    2        0.0000000008
   10    9    9    4        0.0002920634
   10   10    9    9        0.0905194053
   10    1   10    1        0.0022984340
   10    2   10    2        0.0022973648
   10    3   10    1        0.0000000013
   10    3   10    2       -0.0004185451
   10    3   10    3        0.0121729963
   10    4   10    1       -0.0001390058
   10    4   10    2       -0.0000000004
   10    4   10    4        0.0131783891
   10    5   10    5        0.0031552388
   10    6   10    6        0.0031552388
   10    7   10    2        0.0000197092
   10    7   10    3        0.0050199733
   10    7   10    7        0.0227953922
   10    8   10    8        0.0042019558
   10    9   10    9        0.0042019558
   10   10   10    1       -0.0001146602
   10   10   10    2       -0.0000000004
   10   10   10    4        0.0022328080
   10   10   10   10        0.0990688643
 end_two_electron_integrals
 onebody.inp
     -4.7387143858     1
     -0.0000000001     2
     -4.7386776405     3
     -0.0000003533     4
      0.1152333077     5
     -1.1266955899     6
      0.0997169740     7
      0.0000003057     8
     -0.0000000000     9
     -0.9773177887    10
      0.0000000000    11
     -0.0000000000    12
     -0.0000000000    13
      0.0000000000    14
     -0.7236104675    15
      0.0000000000    16
      0.0000000000    17
     -0.0000000000    18
     -0.0000000000    19
     -0.0000000000    20
     -0.7236104675    21
      0.0000000332    22
     -0.0108346951    23
     -0.0416052663    24
     -0.0000000000    25
     -0.0000000000    26
     -0.0000000000    27
     -0.7547727637    28
     -0.0000000000    29
     -0.0000000000    30
      0.0000000000    31
      0.0000000000    32
     -0.0000000000    33
      0.0000000000    34
     -0.0000000000    35
     -0.6650760623    36
     -0.0000000000    37
      0.0000000000    38
      0.0000000000    39
      0.0000000000    40
      0.0000000000    41
      0.0000000000    42
      0.0000000000    43
     -0.0000000000    44
     -0.6650760623    45
      0.0577385485    46
      0.0000001770    47
     -0.0000000000    48
     -0.1989456520    49
      0.0000000000    50
      0.0000000000    51
      0.0000000000    52
     -0.0000000000    53
     -0.0000000000    54
     -0.6227429727    55
 twobody.inp
    1    1    1    1        0.8680002799
    1    1    1    2       -0.0000047148
    1    1    1    3        0.0000005216
    1    1    1    4       -0.0504680336
    1    1    1    7       -0.0000000371
    1    1    1   10       -0.0298313506
    1    1    2    1       -0.0000047148
    1    1    2    2        0.8679798608
    1    1    2    3       -0.0566506368
    1    1    2    4        0.0000001536
    1    1    2    7        0.0043989097
    1    1    2   10        0.0000000927
    1    1    3    1        0.0000005216
    1    1    3    2       -0.0566506368
    1    1    3    3        0.2075560857
    1    1    3    4       -0.0000005423
    1    1    3    7        0.0065505145
    1    1    3   10       -0.0000002718
    1    1    4    1       -0.0504680336
    1    1    4    2        0.0000001536
    1    1    4    3       -0.0000005423
    1    1    4    4        0.1807103024
    1    1    4    7        0.0000002203
    1    1    4   10        0.0419559650
    1    1    5    5        0.1296531987
    1    1    5    8        0.0000000269
    1    1    5    9       -0.0000002577
    1    1    6    6        0.1296531987
    1    1    6    8       -0.0000002577
    1    1    6    9       -0.0000000269
    1    1    7    1       -0.0000000371
    1    1    7    2        0.0043989097
    1    1    7    3        0.0065505145
    1    1    7    4        0.0000002203
    1    1    7    7        0.1378134329
    1    1    7   10       -0.0000001536
    1    1    8    5        0.0000000269
    1    1    8    6       -0.0000002577
    1    1    8    8        0.1224435869
    1    1    9    5       -0.0000002577
    1    1    9    6       -0.0000000269
    1    1    9    9        0.1224435869
    1    1   10    1       -0.0298313506
    1    1   10    2        0.0000000927
    1    1   10    3       -0.0000002718
    1    1   10    4        0.0419559650
    1    1   10    7       -0.0000001536
    1    1   10   10        0.1193089689
    1    2    1    1       -0.0000047148
    1    2    1    2        0.7690112582
    1    2    1    3       -0.0567523896
    1    2    1    4        0.0000001541
    1    2    1    7        0.0038532347
    1    2    1   10        0.0000000921
    1    2    2    1        0.7690083442
    1    2    2    2        0.0000047149
    1    2    2    3       -0.0000001740
    1    2    2    4       -0.0502789035
    1    2    2    7        0.0000000118
    1    2    2   10       -0.0300367466
    1    2    3    1       -0.0567513578
    1    2    3    2       -0.0000001740
    1    2    3    4        0.0884491507
    1    2    3   10        0.0443244053
    1    2    4    1        0.0000001541
    1    2    4    2       -0.0502791677
    1    2    4    3        0.0884499515
    1    2    4    7       -0.0359280688
    1    2    5    8       -0.0043794023
    1    2    5    9        0.0420278046
    1    2    6    8        0.0420278046
    1    2    6    9        0.0043794023
    1    2    7    1        0.0038525382
    1    2    7    2        0.0000000118
    1    2    7    4       -0.0359278413
    1    2    7   10        0.0250501901
    1    2    8    5       -0.0043794063
    1    2    8    6        0.0420278432
    1    2    9    5        0.0420278432
    1    2    9    6        0.0043794063
    1    2   10    1        0.0000000921
    1    2   10    2       -0.0300368903
    1    2   10    3        0.0443247835
    1    2   10    7        0.0250503311
    1    3    1    1        0.0000005216
    1    3    1    2       -0.0567523896
    1    3    1    3        0.0049088894
    1    3    1    4       -0.0000000332
    1    3    1    7       -0.0003431422
    1    3    1   10       -0.0000000200
    1    3    2    1       -0.0567513578
    1    3    2    2       -0.0000001743
    1    3    2    4        0.0054125430
    1    3    2   10        0.0032630065
    1    3    3    1        0.0059901196
    1    3    3    3        0.0000000039
    1    3    3    4       -0.0012941727
    1    3    3    7       -0.0000000008
    1    3    3   10       -0.0006666890
    1    3    4    1       -0.0000000411
    1    3    4    2        0.0067020870
    1    3    4    3       -0.0012624000
    1    3    4    4        0.0000000028
    1    3    4    7        0.0003080979
    1    3    4   10        0.0000000013
    1    3    5    5        0.0000000001
    1    3    5    8        0.0000134495
    1    3    5    9       -0.0001290708
    1    3    6    6        0.0000000001
    1    3    6    8       -0.0001290708
    1    3    6    9       -0.0000134495
    1    3    7    1       -0.0003667378
    1    3    7    3       -0.0000000003
    1    3    7    4        0.0002521856
    1    3    7    7        0.0000000004
    1    3    7   10       -0.0000076392
    1    3    8    5        0.0000139824
    1    3    8    6       -0.0001341853
    1    3    8    8        0.0000000003
    1    3    9    5       -0.0001341853
    1    3    9    6       -0.0000139824
    1    3    9    9        0.0000000003
    1    3   10    1       -0.0000000228
    1    3   10    2        0.0037199073
    1    3   10    3       -0.0006875246
    1    3   10    4        0.0000000014
    1    3   10    7        0.0000053492
    1    3   10   10        0.0000000009
    1    4    1    1       -0.0504680336
    1    4    1    2        0.0000001541
    1    4    1    3       -0.0000000332
    1    4    1    4        0.0061271965
    1    4    1    7        0.0000000036
    1    4    1   10        0.0035983093
    1    4    2    1        0.0000001541
    1    4    2    2       -0.0504669073
    1    4    2    3        0.0054122086
    1    4    2    7       -0.0005837249
    1    4    3    1       -0.0000000411
    1    4    3    2        0.0067011261
    1    4    3    3       -0.0016054210
    1    4    3    4        0.0000000045
    1    4    3    7       -0.0002514992
    1    4    3   10        0.0000000034
    1    4    4    1        0.0046587408
    1    4    4    3        0.0000000022
    1    4    4    4       -0.0006458171
    1    4    4    7        0.0000000007
    1    4    4   10       -0.0005700509
    1    4    5    5       -0.0001351205
    1    4    6    6       -0.0001351205
    1    4    7    1        0.0000000033
    1    4    7    2       -0.0005309212
    1    4    7    3       -0.0002812807
    1    4    7    4        0.0000000007
    1    4    7    7       -0.0000533684
    1    4    8    8       -0.0000673442
    1    4    9    9       -0.0000673442
    1    4   10    1        0.0026922300
    1    4   10    3        0.0000000019
    1    4   10    4       -0.0005584219
    1    4   10   10       -0.0003360334
    1    5    1    5        0.0003612956
    1    5    1    8        0.0000000002
    1    5    1    9       -0.0000000023
    1    5    2    8       -0.0000389402
    1    5    2    9        0.0003736971
    1    5    3    5       -0.0000000025
    1    5    3    8       -0.0000726546
    1    5    3    9        0.0006972442
    1    5    4    5        0.0006015173
    1    5    4    8        0.0000000002
    1    5    4    9       -0.0000000021
    1    5    5    1        0.0003228278
    1    5    5    3       -0.0000000022
    1    5    5    4        0.0005933594
    1    5    5    7        0.0000000001
    1    5    5   10        0.0002791689
    1    5    7    8        0.0000155803
    1    5    7    9       -0.0001495193
    1    5    8    1        0.0000000002
    1    5    8    2       -0.0000344049
    1    5    8    3       -0.0000617105
    1    5    8    4        0.0000000002
    1    5    8    7        0.0000156325
    1    5    9    1       -0.0000000020
    1    5    9    2        0.0003301734
    1    5    9    3        0.0005922172
    1    5    9    4       -0.0000000021
    1    5    9    7       -0.0001500202
    1    5    9   10       -0.0000000008
    1    5   10    5        0.0002827340
    1    5   10    9       -0.0000000008
    1    6    1    6        0.0003612956
    1    6    1    8       -0.0000000023
    1    6    1    9       -0.0000000002
    1    6    2    8        0.0003736971
    1    6    2    9        0.0000389402
    1    6    3    6       -0.0000000025
    1    6    3    8        0.0006972442
    1    6    3    9        0.0000726546
    1    6    4    6        0.0006015173
    1    6    4    8       -0.0000000021
    1    6    4    9       -0.0000000002
    1    6    6    1        0.0003228278
    1    6    6    3       -0.0000000022
    1    6    6    4        0.0005933594
    1    6    6    7        0.0000000001
    1    6    6   10        0.0002791689
    1    6    7    8       -0.0001495193
    1    6    7    9       -0.0000155803
    1    6    8    1       -0.0000000020
    1    6    8    2        0.0003301734
    1    6    8    3        0.0005922172
    1    6    8    4       -0.0000000021
    1    6    8    7       -0.0001500202
    1    6    8   10       -0.0000000008
    1    6    9    1       -0.0000000002
    1    6    9    2        0.0000344049
    1    6    9    3        0.0000617105
    1    6    9    4       -0.0000000002
    1    6    9    7       -0.0000156325
    1    6   10    6        0.0002827340
    1    6   10    8       -0.0000000008
    1    7    1    1       -0.0000000371
    1    7    1    2        0.0038532347
    1    7    1    3       -0.0003431422
    1    7    1    4        0.0000000036
    1    7    1    7        0.0005407995
    1    7    1   10        0.0000000002
    1    7    2    1        0.0038525382
    1    7    2    2        0.0000000101
    1    7    2    4       -0.0005814340
    1    7    2   10       -0.0000353948
    1    7    3    1       -0.0003667378
    1    7    3    3       -0.0000000025
    1    7    3    4       -0.0004102310
    1    7    3    7       -0.0000000035
    1    7    3   10        0.0003696225
    1    7    4    1        0.0000000033
    1    7    4    2       -0.0005293528
    1    7    4    3       -0.0002824459
    1    7    4    4        0.0000000010
    1    7    4    7        0.0009556699
    1    7    4   10       -0.0000000011
    1    7    5    5       -0.0000000007
    1    7    5    8        0.0000225206
    1    7    5    9       -0.0002161238
    1    7    6    6       -0.0000000007
    1    7    6    8       -0.0002161238
    1    7    6    9       -0.0000225206
    1    7    7    1        0.0004849059
    1    7    7    3       -0.0000000031
    1    7    7    4        0.0009299878
    1    7    7    7        0.0000000003
    1    7    7   10        0.0000085851
    1    7    8    5        0.0000224044
    1    7    8    6       -0.0002150086
    1    7    9    5       -0.0002150086
    1    7    9    6       -0.0000224044
    1    7   10    1        0.0000000003
    1    7   10    2       -0.0000451973
    1    7   10    3        0.0003149996
    1    7   10    4       -0.0000000011
    1    7   10    7        0.0000172862
    1    7   10   10       -0.0000000005
    1    8    1    5        0.0000000002
    1    8    1    6       -0.0000000023
    1    8    1    8        0.0003947932
    1    8    2    5       -0.0000391759
    1    8    2    6        0.0003759589
    1    8    3    5       -0.0000844705
    1    8    3    6        0.0008106383
    1    8    3    8       -0.0000000022
    1    8    4    5        0.0000000002
    1    8    4    6       -0.0000000019
    1    8    4    8        0.0006943022
    1    8    5    1        0.0000000002
    1    8    5    2       -0.0000346060
    1    8    5    3       -0.0000751884
    1    8    5    4        0.0000000002
    1    8    5    7        0.0000037875
    1    8    6    1       -0.0000000020
    1    8    6    2        0.0003321034
    1    8    6    3        0.0007215606
    1    8    6    4       -0.0000000019
    1    8    6    7       -0.0000363473
    1    8    6   10       -0.0000000009
    1    8    7    5        0.0000035585
    1    8    7    6       -0.0000341496
    1    8    7    8        0.0000000005
    1    8    8    1        0.0003432585
    1    8    8    3       -0.0000000019
    1    8    8    4        0.0006824785
    1    8    8    7        0.0000000005
    1    8    8   10        0.0002581745
    1    8   10    6       -0.0000000009
    1    8   10    8        0.0002633379
    1    9    1    5       -0.0000000023
    1    9    1    6       -0.0000000002
    1    9    1    9        0.0003947932
    1    9    2    5        0.0003759589
    1    9    2    6        0.0000391759
    1    9    3    5        0.0008106383
    1    9    3    6        0.0000844705
    1    9    3    9       -0.0000000022
    1    9    4    5       -0.0000000019
    1    9    4    6       -0.0000000002
    1    9    4    9        0.0006943022
    1    9    5    1       -0.0000000020
    1    9    5    2        0.0003321034
    1    9    5    3        0.0007215606
    1    9    5    4       -0.0000000019
    1    9    5    7       -0.0000363473
    1    9    5   10       -0.0000000009
    1    9    6    1       -0.0000000002
    1    9    6    2        0.0000346060
    1    9    6    3        0.0000751884
    1    9    6    4       -0.0000000002
    1    9    6    7       -0.0000037875
    1    9    7    5       -0.0000341496
    1    9    7    6       -0.0000035585
    1    9    7    9        0.0000000005
    1    9    9    1        0.0003432585
    1    9    9    3       -0.0000000019
    1    9    9    4        0.0006824785
    1    9    9    7        0.0000000005
    1    9    9   10        0.0002581745
    1    9   10    5       -0.0000000009
    1    9   10    9        0.0002633379
    1   10    1    1       -0.0298313506
    1   10    1    2        0.0000000921
    1   10    1    3       -0.0000000200
    1   10    1    4        0.0035983093
    1   10    1    7        0.0000000002
    1   10    1   10        0.0022984340
    1   10    2    1        0.0000000921
    1   10    2    2       -0.0298300638
    1   10    2    3        0.0032633836
    1   10    2    7       -0.0000324187
    1   10    3    1       -0.0000000228
    1   10    3    2        0.0037199913
    1   10    3    3       -0.0004873055
    1   10    3    4        0.0000000034
    1   10    3    7        0.0004959517
    1   10    3   10        0.0000000013
    1   10    4    1        0.0026922300
    1   10    4    3        0.0000000019
    1   10    4    4       -0.0005854982
    1   10    4    7       -0.0000000012
    1   10    4   10       -0.0001390058
    1   10    5    5        0.0000702671
    1   10    5    9        0.0000000003
    1   10    6    6        0.0000702671
    1   10    6    8        0.0000000003
    1   10    7    1        0.0000000003
    1   10    7    2       -0.0000425078
    1   10    7    3        0.0004100363
    1   10    7    4       -0.0000000012
    1   10    7    7       -0.0000857467
    1   10    8    6        0.0000000003
    1   10    8    8       -0.0000222038
    1   10    9    5        0.0000000003
    1   10    9    9       -0.0000222038
    1   10   10    1        0.0017199855
    1   10   10    3        0.0000000006
    1   10   10    4       -0.0001297587
    1   10   10   10       -0.0001146602
    2    1    1    1       -0.0000047148
    2    1    1    2        0.7690083442
    2    1    1    3       -0.0567513578
    2    1    1    4        0.0000001541
    2    1    1    7        0.0038525382
    2    1    1   10        0.0000000921
    2    1    2    1        0.7690112582
    2    1    2    2        0.0000047149
    2    1    2    3       -0.0000001740
    2    1    2    4       -0.0502791677
    2    1    2    7        0.0000000118
    2    1    2   10       -0.0300368903
    2    1    3    1       -0.0567523896
    2    1    3    2       -0.0000001740
    2    1    3    4        0.0884499515
    2    1    3   10        0.0443247835
    2    1    4    1        0.0000001541
    2    1    4    2       -0.0502789035
    2    1    4    3        0.0884491507
    2    1    4    7       -0.0359278413
    2    1    5    8       -0.0043794063
    2    1    5    9        0.0420278432
    2    1    6    8        0.0420278432
    2    1    6    9        0.0043794063
    2    1    7    1        0.0038532347
    2    1    7    2        0.0000000118
    2    1    7    4       -0.0359280688
    2    1    7   10        0.0250503311
    2    1    8    5       -0.0043794023
    2    1    8    6        0.0420278046
    2    1    9    5        0.0420278046
    2    1    9    6        0.0043794023
    2    1   10    1        0.0000000921
    2    1   10    2       -0.0300367466
    2    1   10    3        0.0443244053
    2    1   10    7        0.0250501901
    2    2    1    1        0.8679798608
    2    2    1    2        0.0000047149
    2    2    1    3       -0.0000001743
    2    2    1    4       -0.0504669073
    2    2    1    7        0.0000000101
    2    2    1   10       -0.0298300638
    2    2    2    1        0.0000047149
    2    2    2    2        0.8679652737
    2    2    2    3       -0.0566500874
    2    2    2    4       -0.0000004630
    2    2    2    7        0.0043982639
    2    2    2   10       -0.0000002756
    2    2    3    1       -0.0000001743
    2    2    3    2       -0.0566500874
    2    2    3    3        0.2075564700
    2    2    3    4        0.0000005423
    2    2    3    7        0.0065507832
    2    2    3   10        0.0000002718
    2    2    4    1       -0.0504669073
    2    2    4    2       -0.0000004630
    2    2    4    3        0.0000005423
    2    2    4    4        0.1807098868
    2    2    4    7       -0.0000002203
    2    2    4   10        0.0419556809
    2    2    5    5        0.1296531438
    2    2    5    8       -0.0000000269
    2    2    5    9        0.0000002577
    2    2    6    6        0.1296531438
    2    2    6    8        0.0000002577
    2    2    6    9        0.0000000269
    2    2    7    1        0.0000000101
    2    2    7    2        0.0043982639
    2    2    7    3        0.0065507832
    2    2    7    4       -0.0000002203
    2    2    7    7        0.1378128041
    2    2    7   10        0.0000001536
    2    2    8    5       -0.0000000269
    2    2    8    6        0.0000002577
    2    2    8    8        0.1224435827
    2    2    9    5        0.0000002577
    2    2    9    6        0.0000000269
    2    2    9    9        0.1224435827
    2    2   10    1       -0.0298300638
    2    2   10    2       -0.0000002756
    2    2   10    3        0.0000002718
    2    2   10    4        0.0419556809
    2    2   10    7        0.0000001536
    2    2   10   10        0.1193088723
    2    3    1    1       -0.0566506368
    2    3    1    2       -0.0000001740
    2    3    1    4        0.0054122086
    2    3    1   10        0.0032633836
[...]
      0.0000000018     6   4   6   2
      0.0100034208     6   4   6   4
      0.0050642519     6   5   6   5
      0.1296531987     6   6   1   1
      0.1296531438     6   6   2   2
      0.0000000001     6   6   3   1
     -0.0000453534     6   6   3   2
      0.1248368327     6   6   3   3
     -0.0001351205     6   6   4   1
     -0.0000000004     6   6   4   2
      0.1126886010     6   6   4   4
      0.1028171917     6   6   5   5
      0.1129456955     6   6   6   6
     -0.0000000371     7   1   1   1
      0.0038532347     7   1   2   1
      0.0000000101     7   1   2   2
     -0.0003431422     7   1   3   1
     -0.0000000025     7   1   3   3
      0.0000000036     7   1   4   1
     -0.0005814340     7   1   4   2
     -0.0004102310     7   1   4   3
      0.0000000010     7   1   4   4
     -0.0000000007     7   1   5   5
     -0.0000000007     7   1   6   6
      0.0005407995     7   1   7   1
      0.0043989097     7   2   1   1
      0.0000000118     7   2   2   1
      0.0043982639     7   2   2   2
     -0.0003422887     7   2   3   2
      0.0008013491     7   2   3   3
     -0.0005837249     7   2   4   1
     -0.0000000036     7   2   4   2
     -0.0000000013     7   2   4   3
     -0.0003302888     7   2   4   4
      0.0002260380     7   2   5   5
      0.0002260380     7   2   6   6
      0.0005484482     7   2   7   2
      0.0065505145     7   3   1   1
      0.0065507832     7   3   2   2
     -0.0000000008     7   3   3   1
      0.0002677549     7   3   3   2
      0.0114260454     7   3   3   3
     -0.0002514992     7   3   4   1
     -0.0000000008     7   3   4   2
     -0.0015831441     7   3   4   4
      0.0073330271     7   3   5   5
      0.0073330271     7   3   6   6
     -0.0000000035     7   3   7   1
      0.0011333449     7   3   7   2
      0.0194802188     7   3   7   3
      0.0000002203     7   4   1   1
     -0.0359280688     7   4   2   1
     -0.0000002203     7   4   2   2
      0.0003080979     7   4   3   1
      0.0000000009     7   4   3   2
      0.0000000007     7   4   4   1
     -0.0002379123     7   4   4   2
     -0.0268982106     7   4   4   3
      0.0009556699     7   4   7   1
      0.0000000029     7   4   7   2
      0.0285568999     7   4   7   4
      0.0000000001     7   5   5   1
     -0.0000345049     7   5   5   2
      0.0011003365     7   5   5   3
      0.0052671523     7   5   7   5
      0.0000000001     7   6   6   1
     -0.0000345049     7   6   6   2
      0.0011003365     7   6   6   3
      0.0052671523     7   6   7   6
      0.1378134329     7   7   1   1
      0.1378128041     7   7   2   2
      0.0000000004     7   7   3   1
     -0.0001299234     7   7   3   2
      0.1269901730     7   7   3   3
     -0.0000533684     7   7   4   1
     -0.0000000002     7   7   4   2
      0.1223709873     7   7   4   4
      0.1028681199     7   7   5   5
      0.1028681199     7   7   6   6
      0.0000000003     7   7   7   1
     -0.0000916641     7   7   7   2
      0.0005081265     7   7   7   3
      0.1161894336     7   7   7   7
      0.0000000002     8   1   5   1
     -0.0000391759     8   1   5   2
     -0.0000844705     8   1   5   3
      0.0000000002     8   1   5   4
     -0.0000000023     8   1   6   1
      0.0003759589     8   1   6   2
      0.0008106383     8   1   6   3
     -0.0000000019     8   1   6   4
      0.0000037875     8   1   7   5
     -0.0000363473     8   1   7   6
      0.0003947932     8   1   8   1
     -0.0000389402     8   2   5   1
     -0.0000000002     8   2   5   2
     -0.0000000003     8   2   5   3
     -0.0000638423     8   2   5   4
      0.0003736971     8   2   6   1
      0.0000000023     8   2   6   2
      0.0000000025     8   2   6   3
      0.0006126755     8   2   6   4
     -0.0000000001     8   2   7   6
      0.0003926981     8   2   8   2
     -0.0000726546     8   3   5   1
     -0.0000000002     8   3   5   2
     -0.0009457325     8   3   5   4
      0.0006972442     8   3   6   1
      0.0000000021     8   3   6   2
      0.0090759103     8   3   6   4
     -0.0000000022     8   3   8   1
      0.0007213692     8   3   8   2
      0.0086441991     8   3   8   3
      0.0000000002     8   4   5   1
     -0.0000708752     8   4   5   2
     -0.0013319311     8   4   5   3
     -0.0000000021     8   4   6   1
      0.0006801680     8   4   6   2
      0.0127821417     8   4   6   3
      0.0002668792     8   4   7   5
     -0.0025611594     8   4   7   6
      0.0006943022     8   4   8   1
      0.0000000021     8   4   8   2
      0.0145095977     8   4   8   4
      0.0000000269     8   5   1   1
     -0.0043794023     8   5   2   1
     -0.0000000269     8   5   2   2
      0.0000134495     8   5   3   1
     -0.0000018378     8   5   4   2
     -0.0031692835     8   5   4   3
      0.0000225206     8   5   7   1
      0.0021087516     8   5   7   4
      0.0036571353     8   5   8   5
     -0.0000002577     8   6   1   1
      0.0420278046     8   6   2   1
      0.0000002577     8   6   2   2
     -0.0001290708     8   6   3   1
     -0.0000000004     8   6   3   2
      0.0000176368     8   6   4   2
      0.0304146585     8   6   4   3
     -0.0002161238     8   6   7   1
     -0.0000000007     8   6   7   2
     -0.0202370535     8   6   7   4
     -0.0027375964     8   6   8   5
      0.0296437585     8   6   8   6
      0.0000155803     8   7   5   1
      0.0005428646     8   7   5   4
     -0.0001495193     8   7   6   1
     -0.0000000005     8   7   6   2
     -0.0052097080     8   7   6   4
      0.0000000005     8   7   8   1
     -0.0001586914     8   7   8   2
     -0.0040463372     8   7   8   3
      0.0056526437     8   7   8   7
      0.1224435869     8   8   1   1
      0.1224435827     8   8   2   2
      0.0000000003     8   8   3   1
     -0.0000951753     8   8   3   2
      0.1145625942     8   8   3   3
     -0.0000673442     8   8   4   1
     -0.0000000002     8   8   4   2
      0.1105175888     8   8   4   4
      0.0967692919     8   8   5   5
     -0.0009043904     8   8   6   5
      0.1053542147     8   8   6   6
     -0.0000003875     8   8   7   2
      0.0005654079     8   8   7   3
      0.1003631272     8   8   7   7
      0.1040299038     8   8   8   8
     -0.0000000023     9   1   5   1
      0.0003759589     9   1   5   2
      0.0008106383     9   1   5   3
     -0.0000000019     9   1   5   4
     -0.0000000002     9   1   6   1
      0.0000391759     9   1   6   2
      0.0000844705     9   1   6   3
     -0.0000000002     9   1   6   4
     -0.0000363473     9   1   7   5
     -0.0000037875     9   1   7   6
      0.0003947932     9   1   9   1
      0.0003736971     9   2   5   1
      0.0000000023     9   2   5   2
      0.0000000025     9   2   5   3
      0.0006126755     9   2   5   4
      0.0000389402     9   2   6   1
      0.0000000002     9   2   6   2
      0.0000000003     9   2   6   3
      0.0000638423     9   2   6   4
     -0.0000000001     9   2   7   5
      0.0003926981     9   2   9   2
      0.0006972442     9   3   5   1
      0.0000000021     9   3   5   2
      0.0090759103     9   3   5   4
      0.0000726546     9   3   6   1
      0.0000000002     9   3   6   2
      0.0009457325     9   3   6   4
     -0.0000000022     9   3   9   1
      0.0007213692     9   3   9   2
      0.0086441991     9   3   9   3
     -0.0000000021     9   4   5   1
      0.0006801680     9   4   5   2
      0.0127821417     9   4   5   3
     -0.0000000002     9   4   6   1
      0.0000708752     9   4   6   2
      0.0013319311     9   4   6   3
     -0.0025611594     9   4   7   5
     -0.0002668792     9   4   7   6
      0.0006943022     9   4   9   1
      0.0000000021     9   4   9   2
      0.0145095977     9   4   9   4
     -0.0000002577     9   5   1   1
      0.0420278046     9   5   2   1
      0.0000002577     9   5   2   2
     -0.0001290708     9   5   3   1
     -0.0000000004     9   5   3   2
      0.0000176368     9   5   4   2
      0.0304146585     9   5   4   3
     -0.0002161238     9   5   7   1
     -0.0000000007     9   5   7   2
     -0.0202370535     9   5   7   4
     -0.0027375964     9   5   8   5
      0.0229000167     9   5   8   6
      0.0296437585     9   5   9   5
     -0.0000000269     9   6   1   1
      0.0043794023     9   6   2   1
      0.0000000269     9   6   2   2
     -0.0000134495     9   6   3   1
      0.0000018378     9   6   4   2
      0.0031692835     9   6   4   3
     -0.0000225206     9   6   7   1
     -0.0021087516     9   6   7   4
      0.0030866065     9   6   8   5
      0.0027375964     9   6   8   6
      0.0027375964     9   6   9   5
      0.0036571353     9   6   9   6
     -0.0001495193     9   7   5   1
     -0.0000000005     9   7   5   2
     -0.0052097080     9   7   5   4
     -0.0000155803     9   7   6   1
     -0.0005428646     9   7   6   4
      0.0000000005     9   7   9   1
     -0.0001586914     9   7   9   2
     -0.0040463372     9   7   9   3
      0.0056526437     9   7   9   7
     -0.0009043904     9   8   5   5
      0.0042924614     9   8   6   5
      0.0009043904     9   8   6   6
      0.0047711778     9   8   9   8
      0.1224435869     9   9   1   1
      0.1224435827     9   9   2   2
      0.0000000003     9   9   3   1
     -0.0000951753     9   9   3   2
      0.1145625942     9   9   3   3
     -0.0000673442     9   9   4   1
     -0.0000000002     9   9   4   2
      0.1105175888     9   9   4   4
      0.1053542147     9   9   5   5
      0.0009043904     9   9   6   5
      0.0967692919     9   9   6   6
     -0.0000003875     9   9   7   2
      0.0005654079     9   9   7   3
      0.1003631272     9   9   7   7
      0.0944875481     9   9   8   8
      0.1040299038     9   9   9   9
     -0.0298313506    10   1   1   1
      0.0000000921    10   1   2   1
     -0.0298300638    10   1   2   2
     -0.0000000200    10   1   3   1
      0.0032633836    10   1   3   2
     -0.0004873055    10   1   3   3
      0.0035983093    10   1   4   1
      0.0000000034    10   1   4   3
     -0.0005854982    10   1   4   4
      0.0000702671    10   1   5   5
      0.0000702671    10   1   6   6
      0.0000000002    10   1   7   1
     -0.0000324187    10   1   7   2
      0.0004959517    10   1   7   3
     -0.0000000012    10   1   7   4
     -0.0000857467    10   1   7   7
      0.0000000003    10   1   8   6
     -0.0000222038    10   1   8   8
      0.0000000003    10   1   9   5
     -0.0000222038    10   1   9   9
      0.0022984340    10   1  10   1
      0.0000000927    10   2   1   1
     -0.0300367466    10   2   2   1
     -0.0000002756    10   2   2   2
      0.0032630065    10   2   3   1
      0.0000000200    10   2   3   2
     -0.0000000015    10   2   3   3
      0.0035998007    10   2   4   2
     -0.0011061958    10   2   4   3
     -0.0000000018    10   2   4   4
      0.0000000002    10   2   5   5
      0.0000000002    10   2   6   6
     -0.0000353948    10   2   7   1
     -0.0000000002    10   2   7   2
      0.0000000015    10   2   7   3
      0.0003780753    10   2   7   4
     -0.0000000003    10   2   7   7
      0.0000096789    10   2   8   5
     -0.0000928851    10   2   8   6
     -0.0000928851    10   2   9   5
     -0.0000096789    10   2   9   6
      0.0022973648    10   2  10   2
     -0.0000002718    10   3   1   1
      0.0443244053    10   3   2   1
      0.0000002718    10   3   2   2
     -0.0006666890    10   3   3   1
     -0.0000000020    10   3   3   2
      0.0000000034    10   3   4   1
     -0.0010986401    10   3   4   2
      0.0216408926    10   3   4   3
      0.0003696225    10   3   7   1
      0.0000000011    10   3   7   2
     -0.0043970695    10   3   7   4
     -0.0011236363    10   3   8   5
      0.0107831992    10   3   8   6
      0.0107831992    10   3   9   5
      0.0011236363    10   3   9   6
      0.0000000013    10   3  10   1
     -0.0004185451    10   3  10   2
      0.0121729963    10   3  10   3
      0.0419559650    10   4   1   1
      0.0419556809    10   4   2   2
      0.0000000013    10   4   3   1
     -0.0004357384    10   4   3   2
      0.0283376372    10   4   3   3
     -0.0005700509    10   4   4   1
     -0.0000000017    10   4   4   2
      0.0160848414    10   4   4   4
      0.0145650838    10   4   5   5
      0.0145650838    10   4   6   6
     -0.0000000011    10   4   7   1
      0.0003683219    10   4   7   2
      0.0077676528    10   4   7   3
      0.0070388394    10   4   7   7
      0.0097136919    10   4   8   8
      0.0097136919    10   4   9   9
     -0.0001390058    10   4  10   1
     -0.0000000004    10   4  10   2
      0.0131783891    10   4  10   4
      0.0002791689    10   5   5   1
      0.0000000009    10   5   5   2
      0.0018233712    10   5   5   4
     -0.0000293423    10   5   8   2
     -0.0002232580    10   5   8   3
     -0.0001880233    10   5   8   7
     -0.0000000009    10   5   9   1
      0.0002815889    10   5   9   2
      0.0021425396    10   5   9   3
      0.0018044034    10   5   9   7
      0.0031552388    10   5  10   5
      0.0002791689    10   6   6   1
      0.0000000009    10   6   6   2
      0.0018233712    10   6   6   4
     -0.0000000009    10   6   8   1
      0.0002815889    10   6   8   2
      0.0021425396    10   6   8   3
      0.0018044034    10   6   8   7
      0.0000293423    10   6   9   2
      0.0002232580    10   6   9   3
      0.0001880233    10   6   9   7
      0.0031552388    10   6  10   6
     -0.0000001536    10   7   1   1
      0.0250501901    10   7   2   1
      0.0000001536    10   7   2   2
     -0.0000076392    10   7   3   1
     -0.0000032295    10   7   4   2
      0.0217668189    10   7   4   3
      0.0000085851    10   7   7   1
     -0.0196693642    10   7   7   4
     -0.0018531959    10   7   8   5
      0.0177845631    10   7   8   6
      0.0177845631    10   7   9   5
      0.0018531959    10   7   9   6
      0.0000197092    10   7  10   2
      0.0050199733    10   7  10   3
      0.0227953922    10   7  10   7
     -0.0000267530    10   8   5   2
     -0.0002778926    10   8   5   3
     -0.0000000008    10   8   6   1
      0.0002567405    10   8   6   2
      0.0026668515    10   8   6   3
     -0.0003117872    10   8   7   5
      0.0029921274    10   8   7   6
      0.0002581745    10   8   8   1
      0.0000000008    10   8   8   2
      0.0002920634    10   8   8   4
      0.0042019558    10   8  10   8
     -0.0000000008    10   9   5   1
      0.0002567405    10   9   5   2
      0.0026668515    10   9   5   3
      0.0000267530    10   9   6   2
      0.0002778926    10   9   6   3
      0.0029921274    10   9   7   5
      0.0003117872    10   9   7   6
      0.0002581745    10   9   9   1
      0.0000000008    10   9   9   2
      0.0002920634    10   9   9   4
      0.0042019558    10   9  10   9
      0.1193089689    10  10   1   1
      0.1193088723    10  10   2   2
      0.0000000009    10  10   3   1
     -0.0003049515    10  10   3   2
      0.1072115556    10  10   3   3
     -0.0003360334    10  10   4   1
     -0.0000000010    10  10   4   2
      0.1054521245    10  10   4   4
      0.0905485866    10  10   5   5
      0.0905485866    10  10   6   6
     -0.0000000005    10  10   7   1
      0.0001696757    10  10   7   2
     -0.0007055455    10  10   7   3
      0.1023491880    10  10   7   7
      0.0905194053    10  10   8   8
      0.0905194053    10  10   9   9
     -0.0001146602    10  10  10   1
     -0.0000000004    10  10  10   2
      0.0022328080    10  10  10   4
      0.0990688643    10  10  10  10
     -4.7387143858     1   1   0   0
     -0.0000000001     2   1   0   0
     -4.7386776405     2   2   0   0
     -0.0000003533     3   1   0   0
      0.1152333077     3   2   0   0
     -1.1266955899     3   3   0   0
      0.0997169740     4   1   0   0
      0.0000003057     4   2   0   0
     -0.9773177887     4   4   0   0
     -0.7236104675     5   5   0   0
     -0.7236104675     6   6   0   0
      0.0000000332     7   1   0   0
     -0.0108346951     7   2   0   0
     -0.0416052663     7   3   0   0
     -0.7547727637     7   7   0   0
     -0.6650760623     8   8   0   0
     -0.6650760623     9   9   0   0
      0.0577385485    10   1   0   0
      0.0000001770    10   2   0   0
     -0.1989456520    10   4   0   0
     -0.6227429727    10  10   0   0

 Parallel integral file used       9 records with       0 large values


 Task  times  cpu:      747.3s     wall:      752.1s


                                NWChem Input Module
                                -------------------


 Summary of allocated global arrays
-----------------------------------
  No active global arrays



                         GA Statistics for process    0
                         ------------------------------

       create   destroy   get      put      acc     scatter   gather  read&inc
calls: 2211     2211     3.58e+06 1.99e+04 1.44e+05    0        0     1.91e+05 
number of processes/call 1.00e+00 1.00e+00 1.00e+00 0.00e+00 0.00e+00
bytes total:             1.33e+10 1.03e+08 2.39e+08 0.00e+00 0.00e+00 1.53e+06
bytes remote:            0.00e+00 0.00e+00 0.00e+00 0.00e+00 0.00e+00 0.00e+00
Max memory consumed for GA by this process: 73662736 bytes

MA_summarize_allocated_blocks: starting scan ...
MA_summarize_allocated_blocks: scan completed: 0 heap blocks, 0 stack blocks
MA usage statistics:

	allocation statistics:
					      heap	     stack
					      ----	     -----
	current number of blocks	         0	         0
	maximum number of blocks	        17	        40
	current total bytes		         0	         0
	maximum total bytes		  28329720	8298725256
	maximum total K-bytes		     28330	   8298726
	maximum total M-bytes		        29	      8299


                                     CITATION
                                     --------
                Please cite the following reference when publishing
                           results obtained with NWChem:

                 M. Valiev, E.J. Bylaska, N. Govind, K. Kowalski,
              T.P. Straatsma, H.J.J. van Dam, D. Wang, J. Nieplocha,
                        E. Apra, T.L. Windus, W.A. de Jong
                 "NWChem: a comprehensive and scalable open-source
                  solution for large scale molecular simulations"
                      Comput. Phys. Commun. 181, 1477 (2010)
                           doi:10.1016/j.cpc.2010.04.018

                                      AUTHORS
                                      -------
          E. Apra, E. J. Bylaska, W. A. de Jong, N. Govind, K. Kowalski,
       T. P. Straatsma, M. Valiev, H. J. J. van Dam, D. Wang, T. L. Windus,
        J. Hammond, J. Autschbach, K. Bhaskaran-Nair, J. Brabec, K. Lopata,
    S. A. Fischer, S. Krishnamoorthy, M. Jacquelin, W. Ma, M. Klemm, O. Villa,
      Y. Chen, V. Anisimov, F. Aquino, S. Hirata, M. T. Hackler, V. Konjkov,
            D. Mejia-Rodriguez, T. Risthaus, M. Malagoli, A. Marenich,
   A. Otero-de-la-Roza, J. Mullin, P. Nichols, R. Peverati, J. Pittner, Y. Zhao,
        P.-D. Fan, A. Fonari, M. J. Williamson, R. J. Harrison, J. R. Rehr,
      M. Dupuis, D. Silverstein, D. M. A. Smith, J. Nieplocha, V. Tipparaju,
    M. Krishnan, B. E. Van Kuiken, A. Vazquez-Mayagoitia, L. Jensen, M. Swart,
      Q. Wu, T. Van Voorhis, A. A. Auer, M. Nooijen, L. D. Crosby, E. Brown,
      G. Cisneros, G. I. Fann, H. Fruchtl, J. Garza, K. Hirao, R. A. Kendall,
      J. A. Nichols, K. Tsemekhman, K. Wolinski, J. Anchell, D. E. Bernholdt,
      P. Borowski, T. Clark, D. Clerc, H. Dachsel, M. J. O. Deegan, K. Dyall,
    D. Elwood, E. Glendening, M. Gutowski, A. C. Hess, J. Jaffe, B. G. Johnson,
     J. Ju, R. Kobayashi, R. Kutteh, Z. Lin, R. Littlefield, X. Long, B. Meng,
      T. Nakajima, S. Niu, L. Pollack, M. Rosing, K. Glaesemann, G. Sandrone,
      M. Stave, H. Taylor, G. Thomas, J. H. van Lenthe, A. T. Wong, Z. Zhang.

 Total times  cpu:      747.4s     wall:      752.2s
