 argument  1 = Li2-10_ORBITALS-ccpVTZ-2_4057.nw
  NWChem w/ OpenMP: maximum threads =    1



============================== echo of input deck ==============================
title "Li2-REMOVE"
echo
start Li2-REMOVE

memory total 24 gb

geometry  units angstrom
symmetry c1
Li  0    0    0
Li  0    0    2.4057
end

basis spherical
   * library cc-pvtz
end

scf
thresh 1.0e-10
tol2e 1.0e-10
rhf
singlet
maxiter 200
end

tce
   ccsd
   maxiter 200
   thresh 1.e-6
   2eorb
   2emet 13
   tilesize 5
end

set tce:qducc T
set tce:nactv 7

task tce energy

================================================================================


                                         
                                         


              Northwest Computational Chemistry Package (NWChem) 6.8
              ------------------------------------------------------


                    Environmental Molecular Sciences Laboratory
                       Pacific Northwest National Laboratory
                                Richland, WA 99352

                              Copyright (c) 1994-2018
                       Pacific Northwest National Laboratory
                            Battelle Memorial Institute

             NWChem is an open-source computational chemistry package
                        distributed under the terms of the
                      Educational Community License (ECL) 2.0
             A copy of the license is included with this distribution
                              in the LICENSE.TXT file

                                  ACKNOWLEDGMENT
                                  --------------

            This software and its documentation were developed at the
            EMSL at Pacific Northwest National Laboratory, a multiprogram
            national laboratory, operated for the U.S. Department of Energy
            by Battelle under Contract Number DE-AC05-76RL01830. Support
            for this work was provided by the Department of Energy Office
            of Biological and Environmental Research, Office of Basic
            Energy Sciences, and the Office of Advanced Scientific Computing.


           Job information
           ---------------

    hostname        = WE35263ubuntu
    program         = /home/baum612/code/NWChem/nwchem/bin/LINUX64/nwchem
    date            = Mon Apr  8 22:05:34 2019

    compiled        = Thu_Apr_04_14:53:19_2019
    source          = /home/baum612/code/NWChem/nwchem
    nwchem branch   = Development
    nwchem revision = nwchem_on_git-845-ga8f432451
    ga revision     = 5.6.5
    use scalapack   = F
    input           = Li2-10_ORBITALS-ccpVTZ-2_4057.nw
    prefix          = Li2-REMOVE.
    data base       = ./Li2-REMOVE.db
    status          = startup
    nproc           =        1
    time left       =     -1s



           Memory information
           ------------------

    heap     =  805306368 doubles =   6144.0 Mbytes
    stack    =  805306365 doubles =   6144.0 Mbytes
    global   = 1610612736 doubles =  12288.0 Mbytes (distinct from heap & stack)
    total    = 3221225469 doubles =  24576.0 Mbytes
    verify   = yes
    hardfail = no 


           Directory information
           ---------------------

  0 permanent = .
  0 scratch   = .




                                NWChem Input Module
                                -------------------


                                    Li2-REMOVE
                                    ----------

 Scaling coordinates for geometry "geometry" by  1.889725989
 (inverse scale =  0.529177249)

 Turning off AUTOSYM since
 SYMMETRY directive was detected!


          ------
          auto-z
          ------
  no constraints, skipping    0.0000000000000000     
  no constraints, skipping    0.0000000000000000     


                             Geometry "geometry" -> ""
                             -------------------------

 Output coordinates in angstroms (scale by  1.889725989 to convert to a.u.)

  No.       Tag          Charge          X              Y              Z
 ---- ---------------- ---------- -------------- -------------- --------------
    1 Li                   3.0000     0.00000000     0.00000000    -1.20285000
    2 Li                   3.0000     0.00000000     0.00000000     1.20285000

      Atomic Mass 
      ----------- 

      Li                 7.016000


 Effective nuclear repulsion energy (a.u.)       1.9797128657

            Nuclear Dipole moment (a.u.) 
            ----------------------------
        X                 Y               Z
 ---------------- ---------------- ----------------
     0.0000000000     0.0000000000     0.0000000000



                                Z-matrix (autoz)
                                -------- 

 Units are Angstrom for bonds and degrees for angles

      Type          Name      I     J     K     L     M      Value
      ----------- --------  ----- ----- ----- ----- ----- ----------
    1 Stretch                  1     2                       2.40570


            XYZ format geometry
            -------------------
     2
 geometry
 Li                    0.00000000     0.00000000    -1.20285000
 Li                    0.00000000     0.00000000     1.20285000

 ==============================================================================
                                internuclear distances
 ------------------------------------------------------------------------------
       center one      |      center two      | atomic units |  angstroms
 ------------------------------------------------------------------------------
    2 Li               |   1 Li               |     4.54611  |     2.40570
 ------------------------------------------------------------------------------
                         number of included internuclear distances:          1
 ==============================================================================





 Summary of "ao basis" -> "" (spherical)
 ------------------------------------------------------------------------------
       Tag                 Description            Shells   Functions and Types
 ---------------- ------------------------------  ------  ---------------------
 *                          cc-pvtz                   on all atoms 


                      Basis "ao basis" -> "ao basis" (spherical)
                      -----
  Li (Lithium)
  ------------
            Exponent  Coefficients 
       -------------- ---------------------------------------------------------
  1 S  5.98800000E+03  0.000133
  1 S  8.98900000E+02  0.001025
  1 S  2.05900000E+02  0.005272
  1 S  5.92400000E+01  0.020929
  1 S  1.98700000E+01  0.066340
  1 S  7.40600000E+00  0.165775
  1 S  2.93000000E+00  0.315038
  1 S  1.18900000E+00  0.393523
  1 S  4.79800000E-01  0.190870

  2 S  5.98800000E+03 -0.000021
  2 S  8.98900000E+02 -0.000161
  2 S  2.05900000E+02 -0.000820
  2 S  5.92400000E+01 -0.003326
  2 S  1.98700000E+01 -0.010519
  2 S  7.40600000E+00 -0.028097
  2 S  2.93000000E+00 -0.055936
  2 S  1.18900000E+00 -0.099237
  2 S  4.79800000E-01 -0.112189

  3 S  7.50900000E-02  1.000000

  4 S  2.83200000E-02  1.000000

  5 P  3.26600000E+00  0.008630
  5 P  6.51100000E-01  0.047538
  5 P  1.69600000E-01  0.209772

  6 P  5.57800000E-02  1.000000

  7 P  2.05000000E-02  1.000000

  8 D  1.87400000E-01  1.000000

  9 D  8.01000000E-02  1.000000

 10 F  1.82900000E-01  1.000000



 Summary of "ao basis" -> "ao basis" (spherical)
 ------------------------------------------------------------------------------
       Tag                 Description            Shells   Functions and Types
 ---------------- ------------------------------  ------  ---------------------
 Li                         cc-pvtz                 10       30   4s3p2d1f


                                 NWChem SCF Module
                                 -----------------


                                    Li2-REMOVE



  ao basis        = "ao basis"
  functions       =    60
  atoms           =     2
  closed shells   =     3
  open shells     =     0
  charge          =   0.00
  wavefunction    = RHF 
  input vectors   = atomic
  output vectors  = ./Li2-REMOVE.movecs
  use symmetry    = F
  symmetry adapt  = F


 Summary of "ao basis" -> "ao basis" (spherical)
 ------------------------------------------------------------------------------
       Tag                 Description            Shells   Functions and Types
 ---------------- ------------------------------  ------  ---------------------
 Li                         cc-pvtz                 10       30   4s3p2d1f



 Forming initial guess at       0.1s


      Superposition of Atomic Density Guess
      -------------------------------------

 Sum of atomic energies:         -14.86535760

      Non-variational initial energy
      ------------------------------

 Total energy =     -14.823512
 1-e energy   =     -23.308522
 2-e energy   =       6.505297
 HOMO         =      -0.172881
 LUMO         =      -0.015130


 Starting SCF solution at       0.2s



 ----------------------------------------------
         Quadratically convergent ROHF

 Convergence threshold     :          1.000E-10
 Maximum no. of iterations :          200
 Final Fock-matrix accuracy:          1.000E-10
 ----------------------------------------------


 Integral file          = ./Li2-REMOVE.aoints.0
 Record size in doubles =    65536    No. of integs per rec  =    43688
 Max. records in memory =       54    Max. records in file   =  1545292
 No. of bits per label  =        8    No. of bits per value  =       64


 #quartets = 2.216D+04 #integrals = 3.711D+05 #direct =  0.0% #cached =100.0%


              iter       energy          gnorm     gmax       time
             ----- ------------------- --------- --------- --------
                 1      -14.8650170314  7.46D-02  3.67D-02      0.4
                 2      -14.8667298365  2.79D-03  1.77D-03      0.4
                 3      -14.8667339476  4.65D-06  3.14D-06      0.4
                 4      -14.8667339476  1.28D-11  7.76D-12      0.5


       Final RHF  results 
       ------------------ 

         Total SCF energy =    -14.866733947642
      One-electron energy =    -23.516551227395
      Two-electron energy =      6.670104414060
 Nuclear repulsion energy =      1.979712865693

        Time for solution =      0.3s


             Final eigenvalues
             -----------------

              1      
    1   -2.4511
    2   -2.4501
    3   -0.1870
    4    0.0091
    5    0.0263
    6    0.0263
    7    0.0397
    8    0.0570
    9    0.0570
   10    0.0666
   11    0.1091
   12    0.1132
   13    0.1132

                       ROHF Final Molecular Orbital Analysis
                       -------------------------------------

 Vector    2  Occ=2.000000D+00  E=-2.450076D+00
              MO Center=  1.2D-16,  4.7D-19,  4.0D-12, r^2= 1.6D+00
   Bfn.  Coefficient  Atom+Function         Bfn.  Coefficient  Atom+Function  
  ----- ------------  ---------------      ----- ------------  ---------------
     1      0.704450  1 Li s                 31     -0.704450  2 Li s          

 Vector    3  Occ=2.000000D+00  E=-1.870318D-01
              MO Center= -3.8D-15,  1.5D-15,  1.7D-14, r^2= 5.0D+00
   Bfn.  Coefficient  Atom+Function         Bfn.  Coefficient  Atom+Function  
  ----- ------------  ---------------      ----- ------------  ---------------
     3      0.298907  1 Li s                 33      0.298907  2 Li s          
     4      0.270838  1 Li s                 34      0.270838  2 Li s          
     2      0.199621  1 Li s                 32      0.199621  2 Li s          

 Vector    4  Occ=0.000000D+00  E= 9.074211D-03
              MO Center=  4.5D-15, -1.8D-15, -9.3D-13, r^2= 2.0D+01
   Bfn.  Coefficient  Atom+Function         Bfn.  Coefficient  Atom+Function  
  ----- ------------  ---------------      ----- ------------  ---------------
     4      1.396019  1 Li s                 34     -1.396019  2 Li s          
    13      0.885818  1 Li pz                43      0.885818  2 Li pz         
    10      0.312860  1 Li pz                40      0.312860  2 Li pz         

 Vector    5  Occ=0.000000D+00  E= 2.632139D-02
              MO Center=  1.5D-15,  8.3D-16, -1.4D-13, r^2= 1.6D+01
   Bfn.  Coefficient  Atom+Function         Bfn.  Coefficient  Atom+Function  
  ----- ------------  ---------------      ----- ------------  ---------------
    12      0.386731  1 Li py                42      0.386731  2 Li py         
    11      0.297462  1 Li px                41      0.297462  2 Li px         

 Vector    6  Occ=0.000000D+00  E= 2.632139D-02
              MO Center=  1.5D-14, -1.1D-14, -1.8D-13, r^2= 1.6D+01
   Bfn.  Coefficient  Atom+Function         Bfn.  Coefficient  Atom+Function  
  ----- ------------  ---------------      ----- ------------  ---------------
    11      0.386731  1 Li px                41      0.386731  2 Li px         
    12     -0.297462  1 Li py                42     -0.297462  2 Li py         

 Vector    7  Occ=0.000000D+00  E= 3.973048D-02
              MO Center=  4.3D-15, -3.4D-15, -1.8D-12, r^2= 2.5D+01
   Bfn.  Coefficient  Atom+Function         Bfn.  Coefficient  Atom+Function  
  ----- ------------  ---------------      ----- ------------  ---------------
    13      1.100020  1 Li pz                43     -1.100020  2 Li pz         
     4     -0.691467  1 Li s                 34     -0.691467  2 Li s          
     3      0.301233  1 Li s                 33      0.301233  2 Li s          

 Vector    8  Occ=0.000000D+00  E= 5.695648D-02
              MO Center=  1.8D-15,  1.2D-14,  1.3D-13, r^2= 2.7D+01
   Bfn.  Coefficient  Atom+Function         Bfn.  Coefficient  Atom+Function  
  ----- ------------  ---------------      ----- ------------  ---------------
    12      1.797945  1 Li py                42     -1.797945  2 Li py         
     9     -0.343031  1 Li py                39      0.343031  2 Li py         
    11      0.291369  1 Li px                41     -0.291369  2 Li px         

 Vector    9  Occ=0.000000D+00  E= 5.695648D-02
              MO Center=  1.7D-14, -2.9D-15,  1.6D-13, r^2= 2.7D+01
   Bfn.  Coefficient  Atom+Function         Bfn.  Coefficient  Atom+Function  
  ----- ------------  ---------------      ----- ------------  ---------------
    11      1.797945  1 Li px                41     -1.797945  2 Li px         
     8     -0.343031  1 Li px                38      0.343031  2 Li px         
    12     -0.291369  1 Li py                42      0.291369  2 Li py         

 Vector   10  Occ=0.000000D+00  E= 6.660660D-02
              MO Center= -1.9D-14, -9.6D-15,  2.0D-12, r^2= 3.0D+01
   Bfn.  Coefficient  Atom+Function         Bfn.  Coefficient  Atom+Function  
  ----- ------------  ---------------      ----- ------------  ---------------
     4      7.781544  1 Li s                 34     -7.781544  2 Li s          
    13      2.406495  1 Li pz                43      2.406495  2 Li pz         
    10      1.185688  1 Li pz                40      1.185688  2 Li pz         
     3      0.392859  1 Li s                 33     -0.392859  2 Li s          
    21      0.357272  1 Li d  0              51     -0.357272  2 Li d  0       

 Vector   11  Occ=0.000000D+00  E= 1.090694D-01
              MO Center= -9.5D-15,  3.3D-15,  4.5D-13, r^2= 1.7D+01
   Bfn.  Coefficient  Atom+Function         Bfn.  Coefficient  Atom+Function  
  ----- ------------  ---------------      ----- ------------  ---------------
    13      1.180580  1 Li pz                43     -1.180580  2 Li pz         
     3     -0.959518  1 Li s                 33     -0.959518  2 Li s          
     4      0.563420  1 Li s                 34      0.563420  2 Li s          
    10     -0.362906  1 Li pz                40      0.362906  2 Li pz         
    21      0.316630  1 Li d  0              51      0.316630  2 Li d  0       

 Vector   12  Occ=0.000000D+00  E= 1.131617D-01
              MO Center= -7.2D-17,  6.1D-15, -1.8D-13, r^2= 1.5D+01
   Bfn.  Coefficient  Atom+Function         Bfn.  Coefficient  Atom+Function  
  ----- ------------  ---------------      ----- ------------  ---------------
     9      0.824893  1 Li py                39      0.824893  2 Li py         
    12     -0.657588  1 Li py                42     -0.657588  2 Li py         

 Vector   13  Occ=0.000000D+00  E= 1.131617D-01
              MO Center= -1.4D-15, -9.5D-19, -1.6D-13, r^2= 1.5D+01
   Bfn.  Coefficient  Atom+Function         Bfn.  Coefficient  Atom+Function  
  ----- ------------  ---------------      ----- ------------  ---------------
     8      0.824893  1 Li px                38      0.824893  2 Li px         
    11     -0.657588  1 Li px                41     -0.657588  2 Li px         

 Vector   14  Occ=0.000000D+00  E= 1.474378D-01
              MO Center= -5.1D-15,  1.2D-15,  4.3D-12, r^2= 1.3D+01
   Bfn.  Coefficient  Atom+Function         Bfn.  Coefficient  Atom+Function  
  ----- ------------  ---------------      ----- ------------  ---------------
     3      1.520692  1 Li s                 33      1.520692  2 Li s          
     4     -1.104993  1 Li s                 34     -1.104993  2 Li s          
    10     -0.908812  1 Li pz                40      0.908812  2 Li pz         
    13      0.439649  1 Li pz                43     -0.439649  2 Li pz         
     2      0.198894  1 Li s                 21     -0.198440  1 Li d  0       

 Vector   15  Occ=0.000000D+00  E= 1.592370D-01
              MO Center=  1.0D-15,  9.7D-16, -4.2D-12, r^2= 2.0D+01
   Bfn.  Coefficient  Atom+Function         Bfn.  Coefficient  Atom+Function  
  ----- ------------  ---------------      ----- ------------  ---------------
     4     12.739030  1 Li s                 34    -12.739030  2 Li s          
    10      5.304257  1 Li pz                40      5.304257  2 Li pz         
    13      2.112958  1 Li pz                43      2.112958  2 Li pz         
     3      1.860811  1 Li s                 33     -1.860811  2 Li s          
    21      0.884972  1 Li d  0              51     -0.884972  2 Li d  0       

 Vector   16  Occ=0.000000D+00  E= 1.684320D-01
              MO Center= -6.1D-16, -1.1D-15,  1.5D-13, r^2= 1.3D+01
   Bfn.  Coefficient  Atom+Function         Bfn.  Coefficient  Atom+Function  
  ----- ------------  ---------------      ----- ------------  ---------------
     8      1.328607  1 Li px                38     -1.328607  2 Li px         
    11     -1.210546  1 Li px                41      1.210546  2 Li px         
     9      0.649333  1 Li py                39     -0.649333  2 Li py         
    12     -0.591632  1 Li py                42      0.591632  2 Li py         

 Vector   17  Occ=0.000000D+00  E= 1.684320D-01
              MO Center=  2.5D-15,  1.3D-15,  1.5D-13, r^2= 1.3D+01
   Bfn.  Coefficient  Atom+Function         Bfn.  Coefficient  Atom+Function  
  ----- ------------  ---------------      ----- ------------  ---------------
     9      1.328607  1 Li py                39     -1.328607  2 Li py         
    12     -1.210546  1 Li py                42      1.210546  2 Li py         
     8     -0.649333  1 Li px                38      0.649333  2 Li px         
    11      0.591632  1 Li px                41     -0.591632  2 Li px         

 Vector   18  Occ=0.000000D+00  E= 2.171970D-01
              MO Center= -2.5D-16,  6.2D-16, -5.6D-14, r^2= 8.0D+00
   Bfn.  Coefficient  Atom+Function         Bfn.  Coefficient  Atom+Function  
  ----- ------------  ---------------      ----- ------------  ---------------
    19      0.647964  1 Li d -2              49      0.647964  2 Li d -2       
    23      0.226131  1 Li d  2              53      0.226131  2 Li d  2       

 Vector   19  Occ=0.000000D+00  E= 2.171970D-01
              MO Center=  4.4D-16,  2.7D-16, -6.3D-14, r^2= 8.0D+00
   Bfn.  Coefficient  Atom+Function         Bfn.  Coefficient  Atom+Function  
  ----- ------------  ---------------      ----- ------------  ---------------
    23      0.647964  1 Li d  2              53      0.647964  2 Li d  2       
    19     -0.226131  1 Li d -2              49     -0.226131  2 Li d -2       

 Vector   20  Occ=0.000000D+00  E= 2.543112D-01
              MO Center=  1.2D-16, -3.9D-16, -3.7D-13, r^2= 1.3D+01
   Bfn.  Coefficient  Atom+Function         Bfn.  Coefficient  Atom+Function  
  ----- ------------  ---------------      ----- ------------  ---------------
     4      4.940217  1 Li s                 34     -4.940217  2 Li s          
    13      1.292269  1 Li pz                43      1.292269  2 Li pz         
    21      0.857062  1 Li d  0              51     -0.857062  2 Li d  0       
     3     -0.818260  1 Li s                 33      0.818260  2 Li s          
    10      0.412538  1 Li pz                40      0.412538  2 Li pz         

 Vector   21  Occ=0.000000D+00  E= 2.632004D-01
              MO Center= -6.4D-17,  1.6D-17, -4.3D-14, r^2= 9.9D+00
   Bfn.  Coefficient  Atom+Function         Bfn.  Coefficient  Atom+Function  
  ----- ------------  ---------------      ----- ------------  ---------------
    20      0.790959  1 Li d -1              50     -0.790959  2 Li d -1       
     9     -0.403513  1 Li py                39     -0.403513  2 Li py         
    22      0.198669  1 Li d  1              52     -0.198669  2 Li d  1       
    12      0.175416  1 Li py                42      0.175416  2 Li py         
    15     -0.160993  1 Li d -1              45      0.160993  2 Li d -1       

 Vector   22  Occ=0.000000D+00  E= 2.632004D-01
              MO Center=  8.8D-16, -1.2D-16, -2.8D-14, r^2= 9.9D+00
   Bfn.  Coefficient  Atom+Function         Bfn.  Coefficient  Atom+Function  
  ----- ------------  ---------------      ----- ------------  ---------------
    22      0.790959  1 Li d  1              52     -0.790959  2 Li d  1       
     8      0.403513  1 Li px                38      0.403513  2 Li px         
    20     -0.198669  1 Li d -1              50      0.198669  2 Li d -1       
    11     -0.175416  1 Li px                41     -0.175416  2 Li px         
    17     -0.160993  1 Li d  1              47      0.160993  2 Li d  1       

 Vector   23  Occ=0.000000D+00  E= 2.841871D-01
              MO Center=  2.6D-15, -1.7D-15,  5.7D-14, r^2= 9.7D+00
   Bfn.  Coefficient  Atom+Function         Bfn.  Coefficient  Atom+Function  
  ----- ------------  ---------------      ----- ------------  ---------------
    23      1.097756  1 Li d  2              53     -1.097756  2 Li d  2       
    18     -0.193763  1 Li d  2              48      0.193763  2 Li d  2       

 Vector   24  Occ=0.000000D+00  E= 2.841871D-01
              MO Center=  1.9D-15, -1.3D-15,  5.5D-14, r^2= 9.7D+00
   Bfn.  Coefficient  Atom+Function         Bfn.  Coefficient  Atom+Function  
  ----- ------------  ---------------      ----- ------------  ---------------
    19      1.097756  1 Li d -2              49     -1.097756  2 Li d -2       
    14     -0.193763  1 Li d -2              44      0.193763  2 Li d -2       

 Vector   25  Occ=0.000000D+00  E= 3.163857D-01
              MO Center= -1.1D-15,  9.0D-18,  4.9D-13, r^2= 1.1D+01
   Bfn.  Coefficient  Atom+Function         Bfn.  Coefficient  Atom+Function  
  ----- ------------  ---------------      ----- ------------  ---------------
    21     -1.356530  1 Li d  0              51     -1.356530  2 Li d  0       
     3      1.344468  1 Li s                 33      1.344468  2 Li s          
    13     -0.697674  1 Li pz                43      0.697674  2 Li pz         
     4     -0.643887  1 Li s                 34     -0.643887  2 Li s          
    10     -0.223523  1 Li pz                40      0.223523  2 Li pz         

 Vector   26  Occ=0.000000D+00  E= 3.635419D-01
              MO Center= -5.7D-15,  6.5D-17,  5.6D-14, r^2= 1.2D+01
   Bfn.  Coefficient  Atom+Function         Bfn.  Coefficient  Atom+Function  
  ----- ------------  ---------------      ----- ------------  ---------------
     8      3.340239  1 Li px                38     -3.340239  2 Li px         
    22     -2.674320  1 Li d  1              52     -2.674320  2 Li d  1       
    11     -0.368342  1 Li px                41      0.368342  2 Li px         
     9      0.229567  1 Li py                39     -0.229567  2 Li py         
    20      0.183800  1 Li d -1              50      0.183800  2 Li d -1       

 Vector   27  Occ=0.000000D+00  E= 3.635419D-01
              MO Center= -2.9D-15,  6.7D-16,  7.9D-14, r^2= 1.2D+01
   Bfn.  Coefficient  Atom+Function         Bfn.  Coefficient  Atom+Function  
  ----- ------------  ---------------      ----- ------------  ---------------
     9      3.340239  1 Li py                39     -3.340239  2 Li py         
    20      2.674320  1 Li d -1              50      2.674320  2 Li d -1       
    12     -0.368342  1 Li py                42      0.368342  2 Li py         
     8     -0.229567  1 Li px                38      0.229567  2 Li px         
    22      0.183800  1 Li d  1              52      0.183800  2 Li d  1       

 Vector   28  Occ=0.000000D+00  E= 3.937972D-01
              MO Center=  2.9D-16, -1.1D-16,  6.5D-13, r^2= 1.2D+01
   Bfn.  Coefficient  Atom+Function         Bfn.  Coefficient  Atom+Function  
  ----- ------------  ---------------      ----- ------------  ---------------
     4      9.557257  1 Li s                 34     -9.557257  2 Li s          
    10      7.312398  1 Li pz                40      7.312398  2 Li pz         
     3      6.134820  1 Li s                 33     -6.134820  2 Li s          
    21      1.991220  1 Li d  0              51     -1.991220  2 Li d  0       
    13      1.148002  1 Li pz                43      1.148002  2 Li pz         

 Vector   29  Occ=0.000000D+00  E= 4.644891D-01
              MO Center=  3.8D-16, -2.6D-15,  1.7D-13, r^2= 6.3D+00
   Bfn.  Coefficient  Atom+Function         Bfn.  Coefficient  Atom+Function  
  ----- ------------  ---------------      ----- ------------  ---------------
     6      0.893115  1 Li py                36      0.893115  2 Li py         
     9     -0.819437  1 Li py                39     -0.819437  2 Li py         
    12      0.320870  1 Li py                42      0.320870  2 Li py         
     5     -0.318170  1 Li px                35     -0.318170  2 Li px         
     8      0.291922  1 Li px                38      0.291922  2 Li px         

 Vector   30  Occ=0.000000D+00  E= 4.644891D-01
              MO Center=  2.6D-15,  7.2D-16,  2.0D-13, r^2= 6.3D+00
   Bfn.  Coefficient  Atom+Function         Bfn.  Coefficient  Atom+Function  
  ----- ------------  ---------------      ----- ------------  ---------------
     5      0.893115  1 Li px                35      0.893115  2 Li px         
     8     -0.819437  1 Li px                38     -0.819437  2 Li px         
    11      0.320870  1 Li px                41      0.320870  2 Li px         
     6      0.318170  1 Li py                36      0.318170  2 Li py         
     9     -0.291922  1 Li py                39     -0.291922  2 Li py         

 Vector   31  Occ=0.000000D+00  E= 4.712468D-01
              MO Center=  4.1D-16,  6.8D-16, -1.3D-13, r^2= 7.6D+00
   Bfn.  Coefficient  Atom+Function         Bfn.  Coefficient  Atom+Function  
  ----- ------------  ---------------      ----- ------------  ---------------
     8      1.514720  1 Li px                38     -1.514720  2 Li px         
     5     -0.860319  1 Li px                35      0.860319  2 Li px         
    11     -0.853096  1 Li px                41      0.853096  2 Li px         
    28     -0.291805  1 Li f  1              58      0.291805  2 Li f  1       
    17     -0.288891  1 Li d  1              47     -0.288891  2 Li d  1       

 Vector   32  Occ=0.000000D+00  E= 4.712468D-01
              MO Center=  3.6D-16,  5.3D-16, -2.5D-13, r^2= 7.6D+00
   Bfn.  Coefficient  Atom+Function         Bfn.  Coefficient  Atom+Function  
  ----- ------------  ---------------      ----- ------------  ---------------
     9      1.514720  1 Li py                39     -1.514720  2 Li py         
     6     -0.860319  1 Li py                36      0.860319  2 Li py         
    12     -0.853096  1 Li py                42      0.853096  2 Li py         
    26      0.291805  1 Li f -1              56     -0.291805  2 Li f -1       
    15      0.288891  1 Li d -1              45      0.288891  2 Li d -1       

 Vector   33  Occ=0.000000D+00  E= 4.960998D-01
              MO Center= -3.3D-15, -8.4D-16, -6.7D-13, r^2= 8.4D+00
   Bfn.  Coefficient  Atom+Function         Bfn.  Coefficient  Atom+Function  
  ----- ------------  ---------------      ----- ------------  ---------------
    10      1.845744  1 Li pz                40     -1.845744  2 Li pz         
     3     -1.492397  1 Li s                 33     -1.492397  2 Li s          
    21      1.228064  1 Li d  0              51      1.228064  2 Li d  0       
     7     -1.083986  1 Li pz                37      1.083986  2 Li pz         
     4      0.868308  1 Li s                 34      0.868308  2 Li s          

 Vector   34  Occ=0.000000D+00  E= 5.953164D-01
              MO Center= -7.8D-16,  1.1D-16, -7.5D-14, r^2= 6.0D+00
   Bfn.  Coefficient  Atom+Function         Bfn.  Coefficient  Atom+Function  
  ----- ------------  ---------------      ----- ------------  ---------------
     4      5.692889  1 Li s                 34     -5.692889  2 Li s          
    10      3.393329  1 Li pz                40      3.393329  2 Li pz         
     3      3.157735  1 Li s                 33     -3.157735  2 Li s          
    21      1.605607  1 Li d  0              51     -1.605607  2 Li d  0       
    13      0.950473  1 Li pz                43      0.950473  2 Li pz         


 center of mass
 --------------
 x =   0.00000000 y =   0.00000000 z =   0.00000000

 moments of inertia (a.u.)
 ------------------
          72.500364936527           0.000000000000           0.000000000000
           0.000000000000          72.500364936527           0.000000000000
           0.000000000000           0.000000000000           0.000000000000

  Mulliken analysis of the total density
  --------------------------------------

    Atom       Charge   Shell Charges
 -----------   ------   -------------------------------------------------------
    1 Li   3     3.00   1.99 -0.02  0.46  0.47  0.04  0.05  0.01  0.00  0.00  0.00
    2 Li   3     3.00   1.99 -0.02  0.46  0.47  0.04  0.05  0.01  0.00  0.00  0.00

       Multipole analysis of the density wrt the origin
       ------------------------------------------------

     L   x y z        total         open         nuclear
     -   - - -        -----         ----         -------
     0   0 0 0     -0.000000      0.000000      6.000000

     1   1 0 0      0.000000      0.000000      0.000000
     1   0 1 0     -0.000000      0.000000      0.000000
     1   0 0 1     -0.000000      0.000000      0.000000

     2   2 0 0    -12.076783      0.000000      0.000000
     2   1 1 0     -0.000000      0.000000      0.000000
     2   1 0 1      0.000000      0.000000      0.000000
     2   0 2 0    -12.076783      0.000000      0.000000
     2   0 1 1      0.000000      0.000000      0.000000
     2   0 0 2     -2.819015      0.000000     31.000726


 Parallel integral file used       9 records with       0 large values

                   NWChem Extensible Many-Electron Theory Module
                   ---------------------------------------------

              ======================================================
                   This portion of the program was automatically
                  generated by a Tensor Contraction Engine (TCE).
                  The development of this portion of the program
                 and TCE was supported by US Department of Energy,
                Office of Science, Office of Basic Energy Science.
                      TCE is a product of Battelle and PNNL.
              Please cite: S.Hirata, J.Phys.Chem.A 107, 9887 (2003).
              ======================================================

                                    Li2-REMOVE


            General Information
            -------------------
      Number of processors :     1
         Wavefunction type : Restricted Hartree-Fock
          No. of electrons :     6
           Alpha electrons :     3
            Beta electrons :     3
           No. of orbitals :   120
            Alpha orbitals :    60
             Beta orbitals :    60
        Alpha frozen cores :     0
         Beta frozen cores :     0
     Alpha frozen virtuals :     0
      Beta frozen virtuals :     0
         Spin multiplicity : singlet 
    Number of AO functions :    60
       Number of AO shells :    20
        Use of symmetry is : off
      Symmetry adaption is : off
         Schwarz screening : 0.10D-09

          Correlation Information
          -----------------------
          Calculation type : Coupled-cluster singles & doubles                           
   Perturbative correction : none                                                        
            Max iterations :      200
        Residual threshold : 0.10D-05
     T(0) DIIS level shift : 0.00D+00
     L(0) DIIS level shift : 0.00D+00
     T(1) DIIS level shift : 0.00D+00
     L(1) DIIS level shift : 0.00D+00
     T(R) DIIS level shift : 0.00D+00
     T(I) DIIS level shift : 0.00D+00
   CC-T/L Amplitude update :  5-th order DIIS
                I/O scheme : Global Array Library
        L-threshold :  0.10D-05
        EOM-threshold :  0.10D-05
 no EOMCCSD initial starts read in
 TCE RESTART OPTIONS
 READ_INT:   F
 WRITE_INT:  F
 READ_TA:    F
 WRITE_TA:   F
 READ_XA:    F
 WRITE_XA:   F
 READ_IN3:   F
 WRITE_IN3:  F
 SLICE:      F
 D4D5:       F
 quantumc:   F
 qrotation:  F
 qducc:      T
 nacto:                         0
 nrotv:                         0
 nrot:                          0

            Memory Information
            ------------------
          Available GA space size is    1610609136 doubles
          Available MA space size is    1610610012 doubles

 Maximum block size supplied by input
 Maximum block size         5 doubles

 tile_dim =      5

 Block   Spin    Irrep     Size     Offset   Alpha
 -------------------------------------------------
   1    alpha     a      3 doubles       0       1
   2    beta      a      3 doubles       3       1
   3    alpha     a      4 doubles       6       3
   4    alpha     a      5 doubles      10       4
   5    alpha     a      5 doubles      15       5
   6    alpha     a      5 doubles      20       6
   7    alpha     a      4 doubles      25       7
   8    alpha     a      5 doubles      29       8
   9    alpha     a      5 doubles      34       9
  10    alpha     a      5 doubles      39      10
  11    alpha     a      4 doubles      44      11
  12    alpha     a      5 doubles      48      12
  13    alpha     a      5 doubles      53      13
  14    alpha     a      5 doubles      58      14
  15    beta      a      4 doubles      63       3
  16    beta      a      5 doubles      67       4
  17    beta      a      5 doubles      72       5
  18    beta      a      5 doubles      77       6
  19    beta      a      4 doubles      82       7
  20    beta      a      5 doubles      86       8
  21    beta      a      5 doubles      91       9
  22    beta      a      5 doubles      96      10
  23    beta      a      4 doubles     101      11
  24    beta      a      5 doubles     105      12
  25    beta      a      5 doubles     110      13
  26    beta      a      5 doubles     115      14

 Global array virtual files algorithm will be used

 Parallel file system coherency ......... OK

 Integral file          = ./Li2-REMOVE.aoints.0
 Record size in doubles =    65536    No. of integs per rec  =    43688
 Max. records in memory =       54    Max. records in file   =  1545292
 No. of bits per label  =        8    No. of bits per value  =       64


 #quartets = 2.216D+04 #integrals = 3.711D+05 #direct =  0.0% #cached =100.0%


 Fock matrix recomputed
 1-e file size   =             3600
 1-e file name   = ./Li2-REMOVE.f1
 Cpu & wall time / sec            0.2            0.3
 4-electron integrals stored in orbital form

 v2    file size   =          1905240
 4-index algorithm nr.  13 is used
 imaxsize =       30
 imaxsize ichop =        0
 Cpu & wall time / sec            4.6            4.7
 T1-number-of-tasks                   12

 t1 file size   =              171
 t1 file name   = ./Li2-REMOVE.t1
 t1 file handle =       -998
 T2-number-of-boxes                  222

 t2 file size   =            45090
 t2 file name   = ./Li2-REMOVE.t2
 t2 file handle =       -996

 CCSD iterations
 -----------------------------------------------------------------
 Iter          Residuum       Correlation     Cpu    Wall    V2*C2
 -----------------------------------------------------------------
    1   0.0901702029664  -0.0460687971848     1.9     2.0     0.6
    2   0.0274253158054  -0.0548294578661     1.8     1.9     0.5
    3   0.0145792667885  -0.0581357449906     1.8     2.0     0.5
    4   0.0087444271902  -0.0596311577517     1.8     2.0     0.5
    5   0.0054359205311  -0.0604404136835     1.9     2.0     0.6
 MICROCYCLE DIIS UPDATE:                    5                    5
    6   0.0007700593472  -0.0615893950261     1.9     2.0     0.6
    7   0.0004038081959  -0.0615879168146     1.9     2.0     0.6
    8   0.0002555335120  -0.0615917876676     1.9     2.0     0.6
    9   0.0001702909301  -0.0615949827192     1.9     2.0     0.5
   10   0.0001157295432  -0.0615978005746     1.9     2.0     0.6
 MICROCYCLE DIIS UPDATE:                   10                    5
   11   0.0000183747022  -0.0616045121137     1.8     2.0     0.5
   12   0.0000084783081  -0.0616059227007     1.8     2.0     0.6
   13   0.0000046758019  -0.0616066631311     1.8     2.0     0.5
   14   0.0000027155954  -0.0616070271804     1.8     1.9     0.5
   15   0.0000016424980  -0.0616072220238     1.8     1.9     0.5
 MICROCYCLE DIIS UPDATE:                   15                    5
   16   0.0000004175956  -0.0616074751828     1.9     2.0     0.6
 -----------------------------------------------------------------
 Iterations converged
 CCSD correlation energy / hartree =        -0.061607475182805
 CCSD total energy / hartree       =       -14.928341422824708

 Singles contributions

 Doubles contributions
     5a   (alpha)     5a   (beta ) ---     3a   (alpha)     3a   (beta )       -0.1029543785
     6a   (alpha)     6a   (beta ) ---     3a   (alpha)     3a   (beta )       -0.1029543785
 Ground state specification:
 exp(T)|Ref>~(1+T)|Ref>
 ------- a(p)+/a(q) strings ----------

 singles norm

 doubles norm

 Reference string
  0.98956600034653097      :(1a)+ (2a)+ (3a)+ (1b)+ (2b)+ (3b)+ |0>

 Singles strings

 Doubles strings
 -0.10188015252778471      :(5a)+ (5b)+ (3b)  (3a)  (1a)+ (2a)+ (3a)+ (1b)+ (2b)+ (3b)+ |0>
 -0.10188015252778487      :(6a)+ (6b)+ (3b)  (3a)  (1a)+ (2a)+ (3a)+ (1b)+ (2b)+ (3b)+ |0>
 -------------------------------------
 enrep_tce =    1.9797128656928480     
  EHF(total)         =       -14.86673395
  Shift (HFtot-HFA)  =         0.00000000
 ALL OCCUPIED ORBITALS ARE ACTIVE IN DUCC --> NO SHIFT
 Number of active orbitals                   10
 Number of active alpha electrons                    3
 Number of active beta electrons                    3
  nos                     6
  nvs                   114
 noas                     3
 nobs                     3
 nvas                    57
 nvbs                    57
 nactv                     7
 From DUCC CCSD corr. ene.  -6.1607475182735343E-002
 From DUCC CCSD corr. ene.-e-part   8.1177811283909981E-002
 begin_one_electron_integrals
    1    1        -5.1004480203
    1    3         0.1326613177
    1    7         0.0144345194
    2    2        -5.1005779010
    2    4        -0.0646389690
    2   10         0.0720253108
    3    1         0.1326613177
    3    3        -1.5677508676
    3    7        -0.1699367026
    4    2        -0.0646389690
    4    4        -0.8781871244
    4   10         0.2983939120
    5    5        -0.8999160951
    6    6        -0.8999160951
    7    1         0.0144345194
    7    3        -0.1699367026
    7    7        -0.7573494150
    8    8        -0.6262457866
    9    9        -0.6262457866
   10    2         0.0720253108
   10    4         0.2983939120
   10   10        -0.7401290435
 end_one_electron_integrals
 begin_two_electron_integrals
    1    1    1    1        0.9267674969
    2    2    1    1        0.9274389482
    2    1    2    1        0.7075983685
    2    2    2    2        0.9279508354
    3    1    1    1       -0.0670130279
    3    3    1    1        0.2888997872
    3    1    2    2       -0.0671176191
    3    2    2    1       -0.0699821336
    3    3    2    2        0.2887935372
    3    1    3    1        0.0071596807
    3    2    3    2        0.0071908290
    3    3    3    1       -0.0014092704
    3    3    3    3        0.2403256078
    4    2    1    1        0.0308476353
    4    4    1    1        0.1573765362
    4    1    2    1        0.0291877868
    4    2    2    2        0.0308658472
    4    3    2    1       -0.0371445350
    4    4    2    2        0.1573958231
    4    1    3    2       -0.0040220724
    4    2    3    1       -0.0039775089
    4    2    3    3        0.0026244935
    4    3    3    2        0.0017208163
    4    4    3    1       -0.0008591001
    4    4    3    3        0.1390008634
    4    1    4    1        0.0023300467
    4    2    4    2        0.0023577618
    4    3    4    1       -0.0001139477
    4    3    4    3        0.0157025419
    4    4    4    2       -0.0001204626
    4    4    4    4        0.1288542687
    5    5    1    1        0.1603634961
    5    5    2    2        0.1603542948
    5    5    3    1        0.0002990838
    5    5    3    3        0.1536767742
    5    5    4    2        0.0002709066
    5    5    4    4        0.1141297240
    5    1    5    1        0.0005136755
    5    2    5    2        0.0004658632
    5    3    5    1        0.0013887033
    5    3    5    3        0.0288214771
    5    4    5    2       -0.0004471344
    5    4    5    4        0.0072094246
    5    5    5    5        0.1339915120
    6    6    1    1        0.1603634961
    6    6    2    2        0.1603542948
    6    6    3    1        0.0002990838
    6    6    3    3        0.1536767742
    6    6    4    2        0.0002709066
    6    6    4    4        0.1141297240
    6    6    5    5        0.1200382401
    6    1    6    1        0.0005136755
    6    2    6    2        0.0004658632
    6    3    6    1        0.0013887033
    6    3    6    3        0.0288214771
    6    4    6    2       -0.0004471344
    6    4    6    4        0.0072094246
    6    5    6    5        0.0069766360
    6    6    6    6        0.1339915120
    7    1    1    1       -0.0104181337
    7    3    1    1        0.0356961785
    7    7    1    1        0.1390100245
    7    1    2    2       -0.0104449347
    7    2    2    1       -0.0132363763
    7    3    2    2        0.0356464614
    7    4    2    1        0.0261512594
    7    7    2    2        0.1390074777
    7    1    3    1        0.0021051478
    7    1    3    3        0.0017331083
    7    2    3    2        0.0020365123
    7    3    3    1        0.0004122944
    7    3    3    3        0.0258381652
    7    4    3    2       -0.0007308115
    7    7    3    1       -0.0000987409
    7    7    3    3        0.1272769650
    7    1    4    2       -0.0005112958
    7    1    4    4       -0.0005744487
    7    2    4    1       -0.0005577587
    7    2    4    3        0.0009745517
    7    3    4    2        0.0009819815
    7    3    4    4       -0.0002724621
    7    4    4    1       -0.0005683710
    7    4    4    3       -0.0199803753
    7    7    4    2        0.0001354446
    7    7    4    4        0.1220801246
    7    1    5    5        0.0003694775
    7    3    5    5        0.0102949394
    7    5    5    1        0.0001118611
    7    5    5    3       -0.0000929198
    7    7    5    5        0.1049295973
    7    1    6    6        0.0003694775
    7    3    6    6        0.0102949394
    7    6    6    1        0.0001118611
    7    6    6    3       -0.0000929198
    7    7    6    6        0.1049295973
    7    1    7    1        0.0009707096
    7    2    7    2        0.0008855453
    7    3    7    1        0.0010991852
    7    3    7    3        0.0160042401
    7    4    7    2       -0.0008133143
    7    4    7    4        0.0433336303
    7    5    7    5        0.0033545787
    7    6    7    6        0.0033545787
    7    7    7    1        0.0000367311
    7    7    7    3        0.0007112144
    7    7    7    7        0.1220773603
    8    8    1    1        0.1153972933
    8    5    2    1        0.0169314615
    8    6    2    1       -0.0091400197
    8    8    2    2        0.1153999721
    8    5    3    2       -0.0003861489
    8    6    3    2        0.0002084527
    8    8    3    1       -0.0000885508
    8    8    3    3        0.1123457453
    8    5    4    1       -0.0001925749
    8    5    4    3       -0.0109711801
    8    6    4    1        0.0001039567
    8    6    4    3        0.0059225131
    8    8    4    2       -0.0000211701
    8    8    4    4        0.1055387081
    8    1    5    2        0.0002041765
    8    1    5    4       -0.0001727686
    8    2    5    1        0.0002173303
    8    2    5    3        0.0004543224
    8    3    5    2        0.0003177300
    8    3    5    4       -0.0036017150
    8    4    5    1       -0.0004467117
    8    4    5    3       -0.0093232056
    8    7    5    2       -0.0001028791
    8    7    5    4        0.0059843673
    8    8    5    5        0.1058100127
    8    1    6    2       -0.0001102195
    8    1    6    4        0.0000932647
    8    2    6    1       -0.0001173203
    8    2    6    3       -0.0002452544
    8    3    6    2       -0.0001715185
    8    3    6    4        0.0019442944
    8    4    6    1        0.0002411460
    8    4    6    3        0.0050328959
    8    7    6    2        0.0000555367
    8    7    6    4       -0.0032305088
    8    8    6    5       -0.0036822218
    8    8    6    6        0.1009766220
    8    2    7    5        0.0000285676
    8    2    7    6       -0.0000154215
    8    4    7    5        0.0046800912
    8    4    7    6       -0.0025264284
    8    5    7    2       -0.0003441552
    8    5    7    4        0.0186714658
    8    6    7    2        0.0001857835
    8    6    7    4       -0.0100793169
    8    8    7    1       -0.0000579016
    8    8    7    3        0.0003378345
    8    8    7    7        0.1014788597
    8    1    8    1        0.0001023649
    8    2    8    2        0.0001073300
    8    3    8    1        0.0001815276
    8    3    8    3        0.0038153246
    8    4    8    2       -0.0002166070
    8    4    8    4        0.0151242009
    8    5    8    5        0.0147173862
    8    6    8    5       -0.0065899965
    8    6    8    6        0.0060671665
    8    7    8    1       -0.0000542066
    8    7    8    3       -0.0036010610
    8    7    8    7        0.0096400009
    8    8    8    8        0.1040435959
    9    9    1    1        0.1153972933
    9    5    2    1        0.0091400197
    9    6    2    1        0.0169314615
    9    9    2    2        0.1153999721
    9    5    3    2       -0.0002084527
    9    6    3    2       -0.0003861489
    9    9    3    1       -0.0000885508
    9    9    3    3        0.1123457453
    9    5    4    1       -0.0001039567
    9    5    4    3       -0.0059225131
    9    6    4    1       -0.0001925749
    9    6    4    3       -0.0109711801
    9    9    4    2       -0.0000211701
    9    9    4    4        0.1055387081
    9    1    5    2        0.0001102195
    9    1    5    4       -0.0000932647
    9    2    5    1        0.0001173203
    9    2    5    3        0.0002452544
    9    3    5    2        0.0001715185
    9    3    5    4       -0.0019442944
    9    4    5    1       -0.0002411460
    9    4    5    3       -0.0050328959
    9    7    5    2       -0.0000555367
    9    7    5    4        0.0032305088
    9    8    5    5        0.0036822218
    9    9    5    5        0.1009766220
    9    1    6    2        0.0002041765
    9    1    6    4       -0.0001727686
    9    2    6    1        0.0002173303
    9    2    6    3        0.0004543224
    9    3    6    2        0.0003177300
    9    3    6    4       -0.0036017150
    9    4    6    1       -0.0004467117
    9    4    6    3       -0.0093232056
    9    7    6    2       -0.0001028791
    9    7    6    4        0.0059843673
    9    8    6    5        0.0024166953
    9    8    6    6       -0.0036822218
    9    9    6    5        0.0036822218
    9    9    6    6        0.1058100127
    9    2    7    5        0.0000154215
    9    2    7    6        0.0000285676
    9    4    7    5        0.0025264284
    9    4    7    6        0.0046800912
    9    5    7    2       -0.0001857835
    9    5    7    4        0.0100793169
    9    6    7    2       -0.0003441552
    9    6    7    4        0.0186714658
    9    9    7    1       -0.0000579016
    9    9    7    3        0.0003378345
    9    9    7    7        0.1014788597
    9    5    8    5        0.0065899965
    9    5    8    6       -0.0010477182
    9    6    8    5        0.0096979379
    9    6    8    6       -0.0065899965
    9    9    8    8        0.0932204405
    9    1    9    1        0.0001023649
    9    2    9    2        0.0001073300
    9    3    9    1        0.0001815276
    9    3    9    3        0.0038153246
    9    4    9    2       -0.0002166070
    9    4    9    4        0.0151242009
    9    5    9    5        0.0060671665
    9    6    9    5        0.0065899965
    9    6    9    6        0.0147173862
    9    7    9    1       -0.0000542066
    9    7    9    3       -0.0036010610
    9    7    9    7        0.0096400009
    9    8    9    8        0.0054115777
    9    9    9    9        0.1040435959
   10    2    1    1       -0.0344905416
   10    4    1    1       -0.0579277324
   10   10    1    1        0.1432453138
   10    1    2    1       -0.0327487567
   10    2    2    2       -0.0345128940
   10    3    2    1        0.0361797099
   10    4    2    2       -0.0579414880
   10    7    2    1       -0.0020506215
   10   10    2    2        0.1432620123
   10    1    3    2        0.0045237190
   10    2    3    1        0.0044752102
   10    2    3    3       -0.0027752944
   10    3    3    2       -0.0017470336
   10    4    3    1        0.0007355619
   10    4    3    3       -0.0421961926
   10    7    3    2        0.0000544334
   10   10    3    1       -0.0008496569
   10   10    3    3        0.1252910451
   10    1    4    1       -0.0026286335
   10    1    4    3        0.0001641368
   10    2    4    2       -0.0026594192
   10    2    4    4        0.0001292175
   10    3    4    1        0.0002856578
   10    3    4    3       -0.0112118002
   10    4    4    2       -0.0000171101
   10    4    4    4       -0.0210323835
   10    7    4    1        0.0001497824
   10    7    4    3       -0.0019827566
   10   10    4    2        0.0000063897
   10   10    4    4        0.1136677931
   10    2    5    5       -0.0002525051
   10    4    5    5       -0.0237364072
   10    5    5    2        0.0004235592
   10    5    5    4       -0.0031983609
   10    8    5    1        0.0002358664
   10    8    5    3        0.0024988127
   10    9    5    1        0.0001273265
   10    9    5    3        0.0013489206
   10   10    5    5        0.1029949641
   10    2    6    6       -0.0002525051
   10    4    6    6       -0.0237364072
   10    6    6    2        0.0004235592
   10    6    6    4       -0.0031983609
   10    8    6    1       -0.0001273265
   10    8    6    3       -0.0013489206
   10    9    6    1        0.0002358664
   10    9    6    3        0.0024988127
   10   10    6    6        0.1029949641
   10    1    7    2        0.0006453834
   10    1    7    4        0.0005741468
   10    2    7    1        0.0005943437
   10    2    7    3       -0.0010412771
   10    2    7    7       -0.0001449538
   10    3    7    2       -0.0008807284
   10    3    7    4        0.0122344331
   10    4    7    1        0.0003824878
   10    4    7    3       -0.0036521749
   10    4    7    7       -0.0112273772
   10    7    7    2        0.0001692348
   10    7    7    4        0.0128908225
   10    8    7    5        0.0011139914
   10    8    7    6       -0.0006013600
   10    9    7    5        0.0006013600
   10    9    7    6        0.0011139914
   10   10    7    1       -0.0004579132
   10   10    7    3        0.0010840643
   10   10    7    7        0.1093860900
   10    1    8    5        0.0002008388
   10    1    8    6       -0.0001084177
   10    2    8    8        0.0000376939
   10    3    8    5        0.0075587832
   10    3    8    6       -0.0040804173
   10    4    8    8       -0.0113029744
   10    5    8    1        0.0001635634
   10    5    8    3        0.0019900225
   10    5    8    7       -0.0006143074
   10    6    8    1       -0.0000882955
   10    6    8    3       -0.0010742631
   10    6    8    7        0.0003316182
   10    7    8    5        0.0048700757
   10    7    8    6       -0.0026289868
   10    8    8    2        0.0001176584
   10    8    8    4        0.0013093271
   10   10    8    8        0.0955750194
   10    1    9    5        0.0001084177
   10    1    9    6        0.0002008388
   10    2    9    9        0.0000376939
   10    3    9    5        0.0040804173
   10    3    9    6        0.0075587832
   10    4    9    9       -0.0113029744
   10    5    9    1        0.0000882955
   10    5    9    3        0.0010742631
   10    5    9    7       -0.0003316182
   10    6    9    1        0.0001635634
   10    6    9    3        0.0019900225
   10    6    9    7       -0.0006143074
   10    7    9    5        0.0026289868
   10    7    9    6        0.0048700757
   10    9    9    2        0.0001176584
   10    9    9    4        0.0013093271
   10   10    9    9        0.0955750194
   10    1   10    1        0.0029651074
   10    2   10    2        0.0029981597
   10    3   10    1       -0.0003010667
   10    3   10    3        0.0110653566
   10    4   10    2        0.0000205543
   10    4   10    4        0.0194613658
   10    5   10    5        0.0033520282
   10    6   10    6        0.0033520282
   10    7   10    1       -0.0001666263
   10    7   10    3       -0.0008689471
   10    7   10    7        0.0128926402
   10    8   10    8        0.0041791083
   10    9   10    9        0.0041791083
   10   10   10    2       -0.0000122722
   10   10   10    4       -0.0139516682
   10   10   10   10        0.1060397871
 end_two_electron_integrals
 onebody.inp
     -5.1004480203     1
     -0.0000000000     2
     -5.1005779010     3
      0.1326613177     4
     -0.0000000000     5
     -1.5677508676     6
     -0.0000000000     7
     -0.0646389690     8
     -0.0000000000     9
     -0.8781871244    10
      0.0000000000    11
      0.0000000000    12
     -0.0000000000    13
      0.0000000000    14
     -0.8999160951    15
     -0.0000000000    16
     -0.0000000000    17
      0.0000000000    18
      0.0000000000    19
     -0.0000000000    20
     -0.8999160951    21
      0.0144345194    22
      0.0000000000    23
     -0.1699367026    24
      0.0000000000    25
      0.0000000000    26
      0.0000000000    27
     -0.7573494150    28
     -0.0000000000    29
     -0.0000000000    30
      0.0000000000    31
     -0.0000000000    32
      0.0000000000    33
     -0.0000000000    34
      0.0000000000    35
     -0.6262457866    36
     -0.0000000000    37
     -0.0000000000    38
      0.0000000000    39
     -0.0000000000    40
      0.0000000000    41
      0.0000000000    42
      0.0000000000    43
     -0.0000000000    44
     -0.6262457866    45
      0.0000000000    46
      0.0720253108    47
      0.0000000000    48
      0.2983939120    49
      0.0000000000    50
     -0.0000000000    51
      0.0000000000    52
      0.0000000000    53
      0.0000000000    54
     -0.7401290435    55
 twobody.inp
    1    1    1    1        0.9267674969
    1    1    1    3       -0.0670130279
    1    1    1    7       -0.0104181337
    1    1    2    2        0.9274389482
    1    1    2    4        0.0308476353
    1    1    2   10       -0.0344905416
    1    1    3    1       -0.0670130279
    1    1    3    3        0.2888997872
    1    1    3    7        0.0356961785
    1    1    4    2        0.0308476353
    1    1    4    4        0.1573765362
    1    1    4   10       -0.0579277324
    1    1    5    5        0.1603634961
    1    1    6    6        0.1603634961
    1    1    7    1       -0.0104181337
    1    1    7    3        0.0356961785
    1    1    7    7        0.1390100245
    1    1    8    8        0.1153972933
    1    1    9    9        0.1153972933
    1    1   10    2       -0.0344905416
    1    1   10    4       -0.0579277324
    1    1   10   10        0.1432453138
    1    2    1    2        0.7075983685
    1    2    1    4        0.0291877868
    1    2    1   10       -0.0327487567
    1    2    2    1        0.7076790316
    1    2    2    3       -0.0699821336
    1    2    2    7       -0.0132363763
    1    2    3    2       -0.0699823908
    1    2    3    4       -0.0371445350
    1    2    3   10        0.0361797099
    1    2    4    1        0.0291821330
    1    2    4    3       -0.0371481490
    1    2    4    7        0.0261512594
    1    2    5    8        0.0169314615
    1    2    5    9        0.0091400197
    1    2    6    8       -0.0091400197
    1    2    6    9        0.0169314615
    1    2    7    2       -0.0132377450
    1    2    7    4        0.0261532715
    1    2    7   10       -0.0020506215
    1    2    8    5        0.0169309709
    1    2    8    6       -0.0091397549
    1    2    9    5        0.0091397549
    1    2    9    6        0.0169309709
    1    2   10    1       -0.0327428710
    1    2   10    3        0.0361829444
    1    2   10    7       -0.0020488444
    1    3    1    1       -0.0670130279
    1    3    1    3        0.0071596807
    1    3    1    7        0.0021051478
    1    3    2    2       -0.0671176191
    1    3    2    4       -0.0039775089
    1    3    2   10        0.0044752102
    1    3    3    1        0.0091241254
    1    3    3    3       -0.0014092704
    1    3    3    7        0.0004122944
    1    3    4    2       -0.0043556141
    1    3    4    4       -0.0008591001
    1    3    4   10        0.0007355619
    1    3    5    5        0.0002990838
    1    3    6    6        0.0002990838
    1    3    7    1        0.0023449346
    1    3    7    3        0.0001219296
    1    3    7    7       -0.0000987409
    1    3    8    8       -0.0000885508
    1    3    9    9       -0.0000885508
    1    3   10    2        0.0047492821
    1    3   10    4        0.0007368279
    1    3   10   10       -0.0008496569
    1    4    1    2        0.0291877868
    1    4    1    4        0.0023300467
    1    4    1   10       -0.0026286335
    1    4    2    1        0.0291821330
    1    4    2    3       -0.0040220724
    1    4    2    7       -0.0005577587
    1    4    3    2       -0.0043975081
    1    4    3    4       -0.0001139477
    1    4    3   10        0.0002856578
    1    4    4    1        0.0017779931
    1    4    4    3        0.0000903735
    1    4    4    7       -0.0005683710
    1    4    5    8       -0.0001925749
    1    4    5    9       -0.0001039567
    1    4    6    8        0.0001039567
    1    4    6    9       -0.0001925749
    1    4    7    2       -0.0003966794
    1    4    7    4       -0.0005605339
    1    4    7   10        0.0001497824
    1    4    8    5       -0.0001907431
    1    4    8    6        0.0001029678
    1    4    9    5       -0.0001029678
    1    4    9    6       -0.0001907431
    1    4   10    1       -0.0019901825
    1    4   10    3        0.0000184999
    1    4   10    7        0.0001561379
    1    5    1    5        0.0005136755
    1    5    2    8        0.0002173303
    1    5    2    9        0.0001173203
    1    5    3    5        0.0013887033
    1    5    4    8       -0.0004467117
    1    5    4    9       -0.0002411460
    1    5    5    1        0.0004872241
    1    5    5    3        0.0014106118
    1    5    5    7        0.0001118611
    1    5    7    5        0.0001312754
    1    5    8    2        0.0001866832
    1    5    8    4       -0.0004455010
    1    5    8   10        0.0002358664
    1    5    9    2        0.0001007762
    1    5    9    4       -0.0002404924
    1    5    9   10        0.0001273265
    1    5   10    8        0.0002370187
    1    5   10    9        0.0001279485
    1    6    1    6        0.0005136755
    1    6    2    8       -0.0001173203
    1    6    2    9        0.0002173303
    1    6    3    6        0.0013887033
    1    6    4    8        0.0002411460
    1    6    4    9       -0.0004467117
    1    6    6    1        0.0004872241
    1    6    6    3        0.0014106118
    1    6    6    7        0.0001118611
    1    6    7    6        0.0001312754
    1    6    8    2       -0.0001007762
    1    6    8    4        0.0002404924
    1    6    8   10       -0.0001273265
    1    6    9    2        0.0001866832
    1    6    9    4       -0.0004455010
    1    6    9   10        0.0002358664
    1    6   10    8       -0.0001279485
    1    6   10    9        0.0002370187
    1    7    1    1       -0.0104181337
    1    7    1    3        0.0021051478
    1    7    1    7        0.0009707096
    1    7    2    2       -0.0104449347
    1    7    2    4       -0.0005112958
    1    7    2   10        0.0005943437
    1    7    3    1        0.0023449346
    1    7    3    3        0.0017331083
    1    7    3    7        0.0010991852
    1    7    4    2       -0.0003529755
    1    7    4    4       -0.0005744487
    1    7    4   10        0.0003824878
    1    7    5    5        0.0003694775
    1    7    6    6        0.0003694775
    1    7    7    1        0.0008074452
    1    7    7    3        0.0010703799
    1    7    7    7        0.0000367311
    1    7    8    8       -0.0000579016
    1    7    9    9       -0.0000579016
    1    7   10    2        0.0004135392
    1    7   10    4        0.0003752035
    1    7   10   10       -0.0004579132
    1    8    1    8        0.0001023649
    1    8    2    5        0.0002041765
    1    8    2    6       -0.0001102195
    1    8    3    8        0.0001815276
    1    8    4    5       -0.0001727686
    1    8    4    6        0.0000932647
    1    8    5    2        0.0001751493
    1    8    5    4       -0.0001720468
    1    8    5   10        0.0001635634
    1    8    6    2       -0.0000945499
    1    8    6    4        0.0000928751
    1    8    6   10       -0.0000882955
    1    8    7    8       -0.0000542066
    1    8    8    1        0.0000902393
    1    8    8    3        0.0001395446
    1    8    8    7       -0.0000554194
    1    8   10    5        0.0001641225
    1    8   10    6       -0.0000885974
    1    9    1    9        0.0001023649
    1    9    2    5        0.0001102195
    1    9    2    6        0.0002041765
    1    9    3    9        0.0001815276
    1    9    4    5       -0.0000932647
    1    9    4    6       -0.0001727686
    1    9    5    2        0.0000945499
    1    9    5    4       -0.0000928751
    1    9    5   10        0.0000882955
    1    9    6    2        0.0001751493
    1    9    6    4       -0.0001720468
    1    9    6   10        0.0001635634
    1    9    7    9       -0.0000542066
    1    9    9    1        0.0000902393
    1    9    9    3        0.0001395446
    1    9    9    7       -0.0000554194
    1    9   10    5        0.0000885974
    1    9   10    6        0.0001641225
    1   10    1    2       -0.0327487567
    1   10    1    4       -0.0026286335
    1   10    1   10        0.0029651074
    1   10    2    1       -0.0327428710
    1   10    2    3        0.0045237190
    1   10    2    7        0.0006453834
    1   10    3    2        0.0047956205
    1   10    3    4        0.0001641368
    1   10    3   10       -0.0003010667
    1   10    4    1       -0.0019901825
    1   10    4    3       -0.0000777333
    1   10    4    7        0.0005741468
    1   10    5    8        0.0002008388
    1   10    5    9        0.0001084177
    1   10    6    8       -0.0001084177
    1   10    6    9        0.0002008388
    1   10    7    2        0.0004609491
    1   10    7    4        0.0005590530
    1   10    7   10       -0.0001666263
    1   10    8    5        0.0001991420
    1   10    8    6       -0.0001075018
    1   10    9    5        0.0001075018
    1   10    9    6        0.0001991420
    1   10   10    1        0.0022295542
    1   10   10    3       -0.0000323604
    1   10   10    7       -0.0001773051
    2    1    1    2        0.7076790316
    2    1    1    4        0.0291821330
    2    1    1   10       -0.0327428710
    2    1    2    1        0.7075983685
    2    1    2    3       -0.0699823908
    2    1    2    7       -0.0132377450
    2    1    3    2       -0.0699821336
    2    1    3    4       -0.0371481490
    2    1    3   10        0.0361829444
    2    1    4    1        0.0291877868
    2    1    4    3       -0.0371445350
    2    1    4    7        0.0261532715
    2    1    5    8        0.0169309709
    2    1    5    9        0.0091397549
    2    1    6    8       -0.0091397549
    2    1    6    9        0.0169309709
    2    1    7    2       -0.0132363763
    2    1    7    4        0.0261512594
    2    1    7   10       -0.0020488444
    2    1    8    5        0.0169314615
    2    1    8    6       -0.0091400197
    2    1    9    5        0.0091400197
    2    1    9    6        0.0169314615
    2    1   10    1       -0.0327487567
    2    1   10    3        0.0361797099
    2    1   10    7       -0.0020506215
    2    2    1    1        0.9274389482
    2    2    1    3       -0.0671176191
    2    2    1    7       -0.0104449347
    2    2    2    2        0.9279508354
    2    2    2    4        0.0308658472
    2    2    2   10       -0.0345128940
    2    2    3    1       -0.0671176191
    2    2    3    3        0.2887935372
    2    2    3    7        0.0356464614
    2    2    4    2        0.0308658472
    2    2    4    4        0.1573958231
    2    2    4   10       -0.0579414880
    2    2    5    5        0.1603542948
    2    2    6    6        0.1603542948
    2    2    7    1       -0.0104449347
    2    2    7    3        0.0356464614
    2    2    7    7        0.1390074777
    2    2    8    8        0.1153999721
    2    2    9    9        0.1153999721
    2    2   10    2       -0.0345128940
    2    2   10    4       -0.0579414880
    2    2   10   10        0.1432620123
    2    3    1    2       -0.0699821336
    2    3    1    4       -0.0040220724
    2    3    1   10        0.0045237190
    2    3    2    1       -0.0699823908
    2    3    2    3        0.0071908290
    2    3    2    7        0.0020365123
    2    3    3    2        0.0091008639
    2    3    3    4        0.0017208163
    2    3    3   10       -0.0017470336
    2    3    4    1       -0.0043975081
    2    3    4    3        0.0020981252
    2    3    4    7       -0.0007308115
    2    3    5    8       -0.0003861489
    2    3    5    9       -0.0002084527
    2    3    6    8        0.0002084527
    2    3    6    9       -0.0003861489
    2    3    7    2        0.0022725432
    2    3    7    4       -0.0006726548
    2    3    7   10        0.0000544334
    2    3    8    5       -0.0003992562
    2    3    8    6        0.0002155283
    2    3    9    5       -0.0002155283
    2    3    9    6       -0.0003992562
    2    3   10    1        0.0047956205
    2    3   10    3       -0.0020824124
    2    3   10    7        0.0001039559
    2    4    1    1        0.0308476353
    2    4    1    3       -0.0039775089
    2    4    1    7       -0.0005112958
    2    4    2    2        0.0308658472
    2    4    2    4        0.0023577618
    2    4    2   10       -0.0026594192
    2    4    3    1       -0.0043556141
    2    4    3    3        0.0026244935
    2    4    3    7        0.0009819815
    2    4    4    2        0.0018027484
    2    4    4    4       -0.0001204626
    2    4    4   10       -0.0000171101
    2    4    5    5        0.0002709066
    2    4    6    6        0.0002709066
    2    4    7    1       -0.0003529755
    2    4    7    3        0.0008810628
    2    4    7    7        0.0001354446
    2    4    8    8       -0.0000211701
    2    4    9    9       -0.0000211701
    2    4   10    2       -0.0020172477
    2    4   10    4       -0.0000188445
    2    4   10   10        0.0000063897
    2    5    1    8        0.0002041765
    2    5    1    9        0.0001102195
    2    5    2    5        0.0004658632
    2    5    3    8        0.0003177300
    2    5    3    9        0.0001715185
    2    5    4    5       -0.0004471344
    2    5    5    2        0.0004463212
    2    5    5    4       -0.0004474155
    2    5    5   10        0.0004235592
    2    5    7    8       -0.0001028791
    2    5    7    9       -0.0000555367
    2    5    8    1        0.0001751493
    2    5    8    3        0.0002809551
    2    5    8    7       -0.0001052471
    2    5    9    1        0.0000945499
    2    5    9    3        0.0001516665
    2    5    9    7       -0.0000568150
    2    5   10    5        0.0004212211
    2    6    1    8       -0.0001102195
    2    6    1    9        0.0002041765
    2    6    2    6        0.0004658632
    2    6    3    8       -0.0001715185
    2    6    3    9        0.0003177300
    2    6    4    6       -0.0004471344
    2    6    6    2        0.0004463212
    2    6    6    4       -0.0004474155
    2    6    6   10        0.0004235592
    2    6    7    8        0.0000555367
    2    6    7    9       -0.0001028791
    2    6    8    1       -0.0000945499
    2    6    8    3       -0.0001516665
    2    6    8    7        0.0000568150
    2    6    9    1        0.0001751493
    2    6    9    3        0.0002809551
    2    6    9    7       -0.0001052471
    2    6   10    6        0.0004212211
    2    7    1    2       -0.0132363763
    2    7    1    4       -0.0005577587
    2    7    1   10        0.0006453834
    2    7    2    1       -0.0132377450
    2    7    2    3        0.0020365123
    2    7    2    7        0.0008855453
    2    7    3    2        0.0022725432
    2    7    3    4        0.0009745517
    2    7    3   10       -0.0008807284
    2    7    4    1       -0.0003966794
    2    7    4    3        0.0007806138
    2    7    4    7       -0.0008133143
    2    7    5    8       -0.0003441552
    2    7    5    9       -0.0001857835
    2    7    6    8        0.0001857835
    2    7    6    9       -0.0003441552
    2    7    7    2        0.0007324390
    2    7    7    4       -0.0008026939
    2    7    7   10        0.0001692348
    2    7    8    5       -0.0003450635
    2    7    8    6        0.0001862738
    2    7    9    5       -0.0001862738
    2    7    9    6       -0.0003450635
    2    7   10    1        0.0004609491
    2    7   10    3       -0.0006958171
    2    7   10    7        0.0001796595
    2    8    1    5        0.0002173303
    2    8    1    6       -0.0001173203
    2    8    2    8        0.0001073300
    2    8    3    5        0.0004543224
    2    8    3    6       -0.0002452544
    2    8    4    8       -0.0002166070
    2    8    5    1        0.0001866832
    2    8    5    3        0.0004559235
    2    8    5    7        0.0000285676
    2    8    6    1       -0.0001007762
    2    8    6    3       -0.0002461187
    2    8    6    7       -0.0000154215
    2    8    7    5        0.0000298190
    2    8    7    6       -0.0000160970
    2    8    8    2        0.0000945502
    2    8    8    4       -0.0002170756
    2    8    8   10        0.0001176584
    2    8   10    8        0.0001173146
    2    9    1    5        0.0001173203
    2    9    1    6        0.0002173303
    2    9    2    9        0.0001073300
    2    9    3    5        0.0002452544
    2    9    3    6        0.0004543224
    2    9    4    9       -0.0002166070
    2    9    5    1        0.0001007762
    2    9    5    3        0.0002461187
    2    9    5    7        0.0000154215
    2    9    6    1        0.0001866832
    2    9    6    3        0.0004559235
    2    9    6    7        0.0000285676
    2    9    7    5        0.0000160970
    2    9    7    6        0.0000298190
    2    9    9    2        0.0000945502
    2    9    9    4       -0.0002170756
    2    9    9   10        0.0001176584
    2    9   10    9        0.0001173146
    2   10    1    1       -0.0344905416
    2   10    1    3        0.0044752102
    2   10    1    7        0.0005943437
    2   10    2    2       -0.0345128940
    2   10    2    4       -0.0026594192
    2   10    2   10        0.0029981597
    2   10    3    1        0.0047492821
    2   10    3    3       -0.0027752944
    2   10    3    7       -0.0010412771
    2   10    4    2       -0.0020172477
    2   10    4    4        0.0001292175
    2   10    4   10        0.0000205543
    2   10    5    5       -0.0002525051
    2   10    6    6       -0.0002525051
    2   10    7    1        0.0004135392
    2   10    7    3       -0.0009264701
    2   10    7    7       -0.0001449538
    2   10    8    8        0.0000376939
    2   10    9    9        0.0000376939
    2   10   10    2        0.0022591221
    2   10   10    4        0.0000236190
    2   10   10   10       -0.0000122722
    3    1    1    1       -0.0670130279
    3    1    1    3        0.0091241254
    3    1    1    7        0.0023449346
    3    1    2    2       -0.0671176191
    3    1    2    4       -0.0043556141
    3    1    2   10        0.0047492821
    3    1    3    1        0.0071596807
    3    1    3    3       -0.0014092704
    3    1    3    7        0.0001219296
    3    1    4    2       -0.0039775089
    3    1    4    4       -0.0008591001
    3    1    4   10        0.0007368279
    3    1    5    5        0.0002990838
    3    1    6    6        0.0002990838
    3    1    7    1        0.0021051478
    3    1    7    3        0.0004122944
    3    1    7    7       -0.0000987409
    3    1    8    8       -0.0000885508
    3    1    9    9       -0.0000885508
    3    1   10    2        0.0044752102
    3    1   10    4        0.0007355619
    3    1   10   10       -0.0008496569
    3    2    1    2       -0.0699823908
    3    2    1    4       -0.0043975081
    3    2    1   10        0.0047956205
    3    2    2    1       -0.0699821336
    3    2    2    3        0.0091008639
    3    2    2    7        0.0022725432
    3    2    3    2        0.0071908290
    3    2    3    4        0.0020981252
    3    2    3   10       -0.0020824124
    3    2    4    1       -0.0040220724
    3    2    4    3        0.0017208163
    3    2    4    7       -0.0006726548
    3    2    5    8       -0.0003992562
    3    2    5    9       -0.0002155283
    3    2    6    8        0.0002155283
    3    2    6    9       -0.0003992562
    3    2    7    2        0.0020365123
    3    2    7    4       -0.0007308115
    3    2    7   10        0.0001039559
    3    2    8    5       -0.0003861489
    3    2    8    6        0.0002084527
    3    2    9    5       -0.0002084527
    3    2    9    6       -0.0003861489
    3    2   10    1        0.0045237190
    3    2   10    3       -0.0017470336
    3    2   10    7        0.0000544334
    3    3    1    1        0.2888997872
    3    3    1    3       -0.0014092704
    3    3    1    7        0.0017331083
    3    3    2    2        0.2887935372
    3    3    2    4        0.0026244935
    3    3    2   10       -0.0027752944
    3    3    3    1       -0.0014092704
    3    3    3    3        0.2403256078
    3    3    3    7        0.0258381652
    3    3    4    2        0.0026244935
    3    3    4    4        0.1390008634
    3    3    4   10       -0.0421961926
    3    3    5    5        0.1536767742
    3    3    6    6        0.1536767742
    3    3    7    1        0.0017331083
    3    3    7    3        0.0258381652
    3    3    7    7        0.1272769650
    3    3    8    8        0.1123457453
    3    3    9    9        0.1123457453
    3    3   10    2       -0.0027752944
    3    3   10    4       -0.0421961926
    3    3   10   10        0.1252910451
    3    4    1    2       -0.0371445350
    3    4    1    4       -0.0001139477
    3    4    1   10        0.0001641368
    3    4    2    1       -0.0371481490
    3    4    2    3        0.0017208163
    3    4    2    7        0.0009745517
    3    4    3    2        0.0020981252
    3    4    3    4        0.0157025419
    3    4    3   10       -0.0112118002
    3    4    4    1        0.0000903735
    3    4    4    3        0.0157252598
    3    4    4    7       -0.0199803753
    3    4    5    8       -0.0109711801
    3    4    5    9       -0.0059225131
    3    4    6    8        0.0059225131
    3    4    6    9       -0.0109711801
    3    4    7    2        0.0007806138
    3    4    7    4       -0.0194697753
    3    4    7   10       -0.0019827566
    3    4    8    5       -0.0110262292
    3    4    8    6        0.0059522300
    3    4    9    5       -0.0059522300
    3    4    9    6       -0.0110262292
    3    4   10    1       -0.0000777333
    3    4   10    3       -0.0126347319
    3    4   10    7       -0.0014387116
    3    5    1    5        0.0013887033
    3    5    2    8        0.0004543224
    3    5    2    9        0.0002452544
    3    5    3    5        0.0288214771
    3    5    4    8       -0.0093232056
    3    5    4    9       -0.0050328959
    3    5    5    1        0.0014106118
    3    5    5    3        0.0209157345
    3    5    5    7       -0.0000929198
    3    5    7    5        0.0018502705
    3    5    8    2        0.0004559235
    3    5    8    4       -0.0095379901
    3    5    8   10        0.0024988127
    3    5    9    2        0.0002461187
    3    5    9    4       -0.0051488419
    3    5    9   10        0.0013489206
    3    5   10    8        0.0022995461
    3    5   10    9        0.0012413516
    3    6    1    6        0.0013887033
    3    6    2    8       -0.0002452544
    3    6    2    9        0.0004543224
    3    6    3    6        0.0288214771
    3    6    4    8        0.0050328959
    3    6    4    9       -0.0093232056
    3    6    6    1        0.0014106118
    3    6    6    3        0.0209157345
    3    6    6    7       -0.0000929198
    3    6    7    6        0.0018502705
    3    6    8    2       -0.0002461187
    3    6    8    4        0.0051488419
    3    6    8   10       -0.0013489206
    3    6    9    2        0.0004559235
    3    6    9    4       -0.0095379901
    3    6    9   10        0.0024988127
    3    6   10    8       -0.0012413516
    3    6   10    9        0.0022995461
    3    7    1    1        0.0356961785
    3    7    1    3        0.0004122944
    3    7    1    7        0.0010991852
    3    7    2    2        0.0356464614
    3    7    2    4        0.0009819815
    3    7    2   10       -0.0010412771
    3    7    3    1        0.0001219296
[...]
   10    7    8    5        0.0048700757
   10    7    8    6       -0.0026289868
   10    7    9    5        0.0026289868
   10    7    9    6        0.0048700757
   10    7   10    1       -0.0001666263
   10    7   10    3       -0.0008689471
   10    7   10    7        0.0128926402
   10    8    1    5        0.0002370187
   10    8    1    6       -0.0001279485
   10    8    2    8        0.0001173146
   10    8    3    5        0.0022995461
   10    8    3    6       -0.0012413516
   10    8    4    8        0.0013093271
   10    8    5    1        0.0002358664
   10    8    5    3        0.0024988127
   10    8    5    7        0.0011139914
   10    8    6    1       -0.0001273265
   10    8    6    3       -0.0013489206
   10    8    6    7       -0.0006013600
   10    8    7    5        0.0011139914
   10    8    7    6       -0.0006013600
   10    8    8    2        0.0001176584
   10    8    8    4        0.0013093271
   10    8    8   10        0.0041791083
   10    8   10    8        0.0041791083
   10    9    1    5        0.0001279485
   10    9    1    6        0.0002370187
   10    9    2    9        0.0001173146
   10    9    3    5        0.0012413516
   10    9    3    6        0.0022995461
   10    9    4    9        0.0013093271
   10    9    5    1        0.0001273265
   10    9    5    3        0.0013489206
   10    9    5    7        0.0006013600
   10    9    6    1        0.0002358664
   10    9    6    3        0.0024988127
   10    9    6    7        0.0011139914
   10    9    7    5        0.0006013600
   10    9    7    6        0.0011139914
   10    9    9    2        0.0001176584
   10    9    9    4        0.0013093271
   10    9    9   10        0.0041791083
   10    9   10    9        0.0041791083
   10   10    1    1        0.1432453138
   10   10    1    3       -0.0008496569
   10   10    1    7       -0.0004579132
   10   10    2    2        0.1432620123
   10   10    2    4        0.0000063897
   10   10    2   10       -0.0000122722
   10   10    3    1       -0.0008496569
   10   10    3    3        0.1252910451
   10   10    3    7        0.0010840643
   10   10    4    2        0.0000063897
   10   10    4    4        0.1136677931
   10   10    4   10       -0.0139516682
   10   10    5    5        0.1029949641
   10   10    6    6        0.1029949641
   10   10    7    1       -0.0004579132
   10   10    7    3        0.0010840643
   10   10    7    7        0.1093860900
   10   10    8    8        0.0955750194
   10   10    9    9        0.0955750194
   10   10   10    2       -0.0000122722
   10   10   10    4       -0.0139516682
   10   10   10   10        0.1060397871
 fcidump
      0.9267674969     1   1   1   1
      0.7075983685     2   1   2   1
      0.9274389482     2   2   1   1
      0.9279508354     2   2   2   2
     -0.0670130279     3   1   1   1
     -0.0671176191     3   1   2   2
      0.0071596807     3   1   3   1
     -0.0699821336     3   2   2   1
      0.0071908290     3   2   3   2
      0.2888997872     3   3   1   1
      0.2887935372     3   3   2   2
     -0.0014092704     3   3   3   1
      0.2403256078     3   3   3   3
      0.0291877868     4   1   2   1
     -0.0040220724     4   1   3   2
      0.0023300467     4   1   4   1
      0.0308476353     4   2   1   1
      0.0308658472     4   2   2   2
     -0.0039775089     4   2   3   1
      0.0026244935     4   2   3   3
      0.0023577618     4   2   4   2
     -0.0371445350     4   3   2   1
      0.0017208163     4   3   3   2
     -0.0001139477     4   3   4   1
      0.0157025419     4   3   4   3
      0.1573765362     4   4   1   1
      0.1573958231     4   4   2   2
     -0.0008591001     4   4   3   1
      0.1390008634     4   4   3   3
     -0.0001204626     4   4   4   2
      0.1288542687     4   4   4   4
      0.0005136755     5   1   5   1
      0.0004658632     5   2   5   2
      0.0013887033     5   3   5   1
      0.0288214771     5   3   5   3
     -0.0004471344     5   4   5   2
      0.0072094246     5   4   5   4
      0.1603634961     5   5   1   1
      0.1603542948     5   5   2   2
      0.0002990838     5   5   3   1
      0.1536767742     5   5   3   3
      0.0002709066     5   5   4   2
      0.1141297240     5   5   4   4
      0.1339915120     5   5   5   5
      0.0005136755     6   1   6   1
      0.0004658632     6   2   6   2
      0.0013887033     6   3   6   1
      0.0288214771     6   3   6   3
     -0.0004471344     6   4   6   2
      0.0072094246     6   4   6   4
      0.0069766360     6   5   6   5
      0.1603634961     6   6   1   1
      0.1603542948     6   6   2   2
      0.0002990838     6   6   3   1
      0.1536767742     6   6   3   3
      0.0002709066     6   6   4   2
      0.1141297240     6   6   4   4
      0.1200382401     6   6   5   5
      0.1339915120     6   6   6   6
     -0.0104181337     7   1   1   1
     -0.0104449347     7   1   2   2
      0.0021051478     7   1   3   1
      0.0017331083     7   1   3   3
     -0.0005112958     7   1   4   2
     -0.0005744487     7   1   4   4
      0.0003694775     7   1   5   5
      0.0003694775     7   1   6   6
      0.0009707096     7   1   7   1
     -0.0132363763     7   2   2   1
      0.0020365123     7   2   3   2
     -0.0005577587     7   2   4   1
      0.0009745517     7   2   4   3
      0.0008855453     7   2   7   2
      0.0356961785     7   3   1   1
      0.0356464614     7   3   2   2
      0.0004122944     7   3   3   1
      0.0258381652     7   3   3   3
      0.0009819815     7   3   4   2
     -0.0002724621     7   3   4   4
      0.0102949394     7   3   5   5
      0.0102949394     7   3   6   6
      0.0010991852     7   3   7   1
      0.0160042401     7   3   7   3
      0.0261512594     7   4   2   1
     -0.0007308115     7   4   3   2
     -0.0005683710     7   4   4   1
     -0.0199803753     7   4   4   3
     -0.0008133143     7   4   7   2
      0.0433336303     7   4   7   4
      0.0001118611     7   5   5   1
     -0.0000929198     7   5   5   3
      0.0033545787     7   5   7   5
      0.0001118611     7   6   6   1
     -0.0000929198     7   6   6   3
      0.0033545787     7   6   7   6
      0.1390100245     7   7   1   1
      0.1390074777     7   7   2   2
     -0.0000987409     7   7   3   1
      0.1272769650     7   7   3   3
      0.0001354446     7   7   4   2
      0.1220801246     7   7   4   4
      0.1049295973     7   7   5   5
      0.1049295973     7   7   6   6
      0.0000367311     7   7   7   1
      0.0007112144     7   7   7   3
      0.1220773603     7   7   7   7
      0.0002041765     8   1   5   2
     -0.0001727686     8   1   5   4
     -0.0001102195     8   1   6   2
      0.0000932647     8   1   6   4
      0.0001023649     8   1   8   1
      0.0002173303     8   2   5   1
      0.0004543224     8   2   5   3
     -0.0001173203     8   2   6   1
     -0.0002452544     8   2   6   3
      0.0000285676     8   2   7   5
     -0.0000154215     8   2   7   6
      0.0001073300     8   2   8   2
      0.0003177300     8   3   5   2
     -0.0036017150     8   3   5   4
     -0.0001715185     8   3   6   2
      0.0019442944     8   3   6   4
      0.0001815276     8   3   8   1
      0.0038153246     8   3   8   3
     -0.0004467117     8   4   5   1
     -0.0093232056     8   4   5   3
      0.0002411460     8   4   6   1
      0.0050328959     8   4   6   3
      0.0046800912     8   4   7   5
     -0.0025264284     8   4   7   6
     -0.0002166070     8   4   8   2
      0.0151242009     8   4   8   4
      0.0169314615     8   5   2   1
     -0.0003861489     8   5   3   2
     -0.0001925749     8   5   4   1
     -0.0109711801     8   5   4   3
     -0.0003441552     8   5   7   2
      0.0186714658     8   5   7   4
      0.0147173862     8   5   8   5
     -0.0091400197     8   6   2   1
      0.0002084527     8   6   3   2
      0.0001039567     8   6   4   1
      0.0059225131     8   6   4   3
      0.0001857835     8   6   7   2
     -0.0100793169     8   6   7   4
     -0.0065899965     8   6   8   5
      0.0060671665     8   6   8   6
     -0.0001028791     8   7   5   2
      0.0059843673     8   7   5   4
      0.0000555367     8   7   6   2
     -0.0032305088     8   7   6   4
     -0.0000542066     8   7   8   1
     -0.0036010610     8   7   8   3
      0.0096400009     8   7   8   7
      0.1153972933     8   8   1   1
      0.1153999721     8   8   2   2
     -0.0000885508     8   8   3   1
      0.1123457453     8   8   3   3
     -0.0000211701     8   8   4   2
      0.1055387081     8   8   4   4
      0.1058100127     8   8   5   5
     -0.0036822218     8   8   6   5
      0.1009766220     8   8   6   6
     -0.0000579016     8   8   7   1
      0.0003378345     8   8   7   3
      0.1014788597     8   8   7   7
      0.1040435959     8   8   8   8
      0.0001102195     9   1   5   2
     -0.0000932647     9   1   5   4
      0.0002041765     9   1   6   2
     -0.0001727686     9   1   6   4
      0.0001023649     9   1   9   1
      0.0001173203     9   2   5   1
      0.0002452544     9   2   5   3
      0.0002173303     9   2   6   1
      0.0004543224     9   2   6   3
      0.0000154215     9   2   7   5
      0.0000285676     9   2   7   6
      0.0001073300     9   2   9   2
      0.0001715185     9   3   5   2
     -0.0019442944     9   3   5   4
      0.0003177300     9   3   6   2
     -0.0036017150     9   3   6   4
      0.0001815276     9   3   9   1
      0.0038153246     9   3   9   3
     -0.0002411460     9   4   5   1
     -0.0050328959     9   4   5   3
     -0.0004467117     9   4   6   1
     -0.0093232056     9   4   6   3
      0.0025264284     9   4   7   5
      0.0046800912     9   4   7   6
     -0.0002166070     9   4   9   2
      0.0151242009     9   4   9   4
      0.0091400197     9   5   2   1
     -0.0002084527     9   5   3   2
     -0.0001039567     9   5   4   1
     -0.0059225131     9   5   4   3
     -0.0001857835     9   5   7   2
      0.0100793169     9   5   7   4
      0.0065899965     9   5   8   5
     -0.0010477182     9   5   8   6
      0.0060671665     9   5   9   5
      0.0169314615     9   6   2   1
     -0.0003861489     9   6   3   2
     -0.0001925749     9   6   4   1
     -0.0109711801     9   6   4   3
     -0.0003441552     9   6   7   2
      0.0186714658     9   6   7   4
      0.0096979379     9   6   8   5
     -0.0065899965     9   6   8   6
      0.0065899965     9   6   9   5
      0.0147173862     9   6   9   6
     -0.0000555367     9   7   5   2
      0.0032305088     9   7   5   4
     -0.0001028791     9   7   6   2
      0.0059843673     9   7   6   4
     -0.0000542066     9   7   9   1
     -0.0036010610     9   7   9   3
      0.0096400009     9   7   9   7
      0.0036822218     9   8   5   5
      0.0024166953     9   8   6   5
     -0.0036822218     9   8   6   6
      0.0054115777     9   8   9   8
      0.1153972933     9   9   1   1
      0.1153999721     9   9   2   2
     -0.0000885508     9   9   3   1
      0.1123457453     9   9   3   3
     -0.0000211701     9   9   4   2
      0.1055387081     9   9   4   4
      0.1009766220     9   9   5   5
      0.0036822218     9   9   6   5
      0.1058100127     9   9   6   6
     -0.0000579016     9   9   7   1
      0.0003378345     9   9   7   3
      0.1014788597     9   9   7   7
      0.0932204405     9   9   8   8
      0.1040435959     9   9   9   9
     -0.0327487567    10   1   2   1
      0.0045237190    10   1   3   2
     -0.0026286335    10   1   4   1
      0.0001641368    10   1   4   3
      0.0006453834    10   1   7   2
      0.0005741468    10   1   7   4
      0.0002008388    10   1   8   5
     -0.0001084177    10   1   8   6
      0.0001084177    10   1   9   5
      0.0002008388    10   1   9   6
      0.0029651074    10   1  10   1
     -0.0344905416    10   2   1   1
     -0.0345128940    10   2   2   2
      0.0044752102    10   2   3   1
     -0.0027752944    10   2   3   3
     -0.0026594192    10   2   4   2
      0.0001292175    10   2   4   4
     -0.0002525051    10   2   5   5
     -0.0002525051    10   2   6   6
      0.0005943437    10   2   7   1
     -0.0010412771    10   2   7   3
     -0.0001449538    10   2   7   7
      0.0000376939    10   2   8   8
      0.0000376939    10   2   9   9
      0.0029981597    10   2  10   2
      0.0361797099    10   3   2   1
     -0.0017470336    10   3   3   2
      0.0002856578    10   3   4   1
     -0.0112118002    10   3   4   3
     -0.0008807284    10   3   7   2
      0.0122344331    10   3   7   4
      0.0075587832    10   3   8   5
     -0.0040804173    10   3   8   6
      0.0040804173    10   3   9   5
      0.0075587832    10   3   9   6
     -0.0003010667    10   3  10   1
      0.0110653566    10   3  10   3
     -0.0579277324    10   4   1   1
     -0.0579414880    10   4   2   2
      0.0007355619    10   4   3   1
     -0.0421961926    10   4   3   3
     -0.0000171101    10   4   4   2
     -0.0210323835    10   4   4   4
     -0.0237364072    10   4   5   5
     -0.0237364072    10   4   6   6
      0.0003824878    10   4   7   1
     -0.0036521749    10   4   7   3
     -0.0112273772    10   4   7   7
     -0.0113029744    10   4   8   8
     -0.0113029744    10   4   9   9
      0.0000205543    10   4  10   2
      0.0194613658    10   4  10   4
      0.0004235592    10   5   5   2
     -0.0031983609    10   5   5   4
      0.0001635634    10   5   8   1
      0.0019900225    10   5   8   3
     -0.0006143074    10   5   8   7
      0.0000882955    10   5   9   1
      0.0010742631    10   5   9   3
     -0.0003316182    10   5   9   7
      0.0033520282    10   5  10   5
      0.0004235592    10   6   6   2
     -0.0031983609    10   6   6   4
     -0.0000882955    10   6   8   1
     -0.0010742631    10   6   8   3
      0.0003316182    10   6   8   7
      0.0001635634    10   6   9   1
      0.0019900225    10   6   9   3
     -0.0006143074    10   6   9   7
      0.0033520282    10   6  10   6
     -0.0020506215    10   7   2   1
      0.0000544334    10   7   3   2
      0.0001497824    10   7   4   1
     -0.0019827566    10   7   4   3
      0.0001692348    10   7   7   2
      0.0128908225    10   7   7   4
      0.0048700757    10   7   8   5
     -0.0026289868    10   7   8   6
      0.0026289868    10   7   9   5
      0.0048700757    10   7   9   6
     -0.0001666263    10   7  10   1
     -0.0008689471    10   7  10   3
      0.0128926402    10   7  10   7
      0.0002358664    10   8   5   1
      0.0024988127    10   8   5   3
     -0.0001273265    10   8   6   1
     -0.0013489206    10   8   6   3
      0.0011139914    10   8   7   5
     -0.0006013600    10   8   7   6
      0.0001176584    10   8   8   2
      0.0013093271    10   8   8   4
      0.0041791083    10   8  10   8
      0.0001273265    10   9   5   1
      0.0013489206    10   9   5   3
      0.0002358664    10   9   6   1
      0.0024988127    10   9   6   3
      0.0006013600    10   9   7   5
      0.0011139914    10   9   7   6
      0.0001176584    10   9   9   2
      0.0013093271    10   9   9   4
      0.0041791083    10   9  10   9
      0.1432453138    10  10   1   1
      0.1432620123    10  10   2   2
     -0.0008496569    10  10   3   1
      0.1252910451    10  10   3   3
      0.0000063897    10  10   4   2
      0.1136677931    10  10   4   4
      0.1029949641    10  10   5   5
      0.1029949641    10  10   6   6
     -0.0004579132    10  10   7   1
      0.0010840643    10  10   7   3
      0.1093860900    10  10   7   7
      0.0955750194    10  10   8   8
      0.0955750194    10  10   9   9
     -0.0000122722    10  10  10   2
     -0.0139516682    10  10  10   4
      0.1060397871    10  10  10  10
     -5.1004480203     1   1   0   0
     -5.1005779010     2   2   0   0
      0.1326613177     3   1   0   0
     -1.5677508676     3   3   0   0
     -0.0646389690     4   2   0   0
     -0.8781871244     4   4   0   0
     -0.8999160951     5   5   0   0
     -0.8999160951     6   6   0   0
      0.0144345194     7   1   0   0
     -0.1699367026     7   3   0   0
     -0.7573494150     7   7   0   0
     -0.6262457866     8   8   0   0
     -0.6262457866     9   9   0   0
      0.0720253108    10   2   0   0
      0.2983939120    10   4   0   0
     -0.7401290435    10  10   0   0

 Parallel integral file used       9 records with       0 large values


 Task  times  cpu:      745.2s     wall:      749.5s


                                NWChem Input Module
                                -------------------


 Summary of allocated global arrays
-----------------------------------
  No active global arrays



                         GA Statistics for process    0
                         ------------------------------

       create   destroy   get      put      acc     scatter   gather  read&inc
calls: 2041     2041     3.19e+06 1.79e+04 1.28e+05    0        0     1.71e+05 
number of processes/call 1.00e+00 1.00e+00 1.00e+00 0.00e+00 0.00e+00
bytes total:             1.24e+10 9.88e+07 2.18e+08 0.00e+00 0.00e+00 1.37e+06
bytes remote:            0.00e+00 0.00e+00 0.00e+00 0.00e+00 0.00e+00 0.00e+00
Max memory consumed for GA by this process: 73662736 bytes

MA_summarize_allocated_blocks: starting scan ...
MA_summarize_allocated_blocks: scan completed: 0 heap blocks, 0 stack blocks
MA usage statistics:

	allocation statistics:
					      heap	     stack
					      ----	     -----
	current number of blocks	         0	         0
	maximum number of blocks	        17	        40
	current total bytes		         0	         0
	maximum total bytes		  28329720	8298725256
	maximum total K-bytes		     28330	   8298726
	maximum total M-bytes		        29	      8299


                                     CITATION
                                     --------
                Please cite the following reference when publishing
                           results obtained with NWChem:

                 M. Valiev, E.J. Bylaska, N. Govind, K. Kowalski,
              T.P. Straatsma, H.J.J. van Dam, D. Wang, J. Nieplocha,
                        E. Apra, T.L. Windus, W.A. de Jong
                 "NWChem: a comprehensive and scalable open-source
                  solution for large scale molecular simulations"
                      Comput. Phys. Commun. 181, 1477 (2010)
                           doi:10.1016/j.cpc.2010.04.018

                                      AUTHORS
                                      -------
          E. Apra, E. J. Bylaska, W. A. de Jong, N. Govind, K. Kowalski,
       T. P. Straatsma, M. Valiev, H. J. J. van Dam, D. Wang, T. L. Windus,
        J. Hammond, J. Autschbach, K. Bhaskaran-Nair, J. Brabec, K. Lopata,
    S. A. Fischer, S. Krishnamoorthy, M. Jacquelin, W. Ma, M. Klemm, O. Villa,
      Y. Chen, V. Anisimov, F. Aquino, S. Hirata, M. T. Hackler, V. Konjkov,
            D. Mejia-Rodriguez, T. Risthaus, M. Malagoli, A. Marenich,
   A. Otero-de-la-Roza, J. Mullin, P. Nichols, R. Peverati, J. Pittner, Y. Zhao,
        P.-D. Fan, A. Fonari, M. J. Williamson, R. J. Harrison, J. R. Rehr,
      M. Dupuis, D. Silverstein, D. M. A. Smith, J. Nieplocha, V. Tipparaju,
    M. Krishnan, B. E. Van Kuiken, A. Vazquez-Mayagoitia, L. Jensen, M. Swart,
      Q. Wu, T. Van Voorhis, A. A. Auer, M. Nooijen, L. D. Crosby, E. Brown,
      G. Cisneros, G. I. Fann, H. Fruchtl, J. Garza, K. Hirao, R. A. Kendall,
      J. A. Nichols, K. Tsemekhman, K. Wolinski, J. Anchell, D. E. Bernholdt,
      P. Borowski, T. Clark, D. Clerc, H. Dachsel, M. J. O. Deegan, K. Dyall,
    D. Elwood, E. Glendening, M. Gutowski, A. C. Hess, J. Jaffe, B. G. Johnson,
     J. Ju, R. Kobayashi, R. Kutteh, Z. Lin, R. Littlefield, X. Long, B. Meng,
      T. Nakajima, S. Niu, L. Pollack, M. Rosing, K. Glaesemann, G. Sandrone,
      M. Stave, H. Taylor, G. Thomas, J. H. van Lenthe, A. T. Wong, Z. Zhang.

 Total times  cpu:      745.2s     wall:      749.6s
