 argument  1 = Li2-10_ORBITALS-ccpVTZ-4_0095.nw
  NWChem w/ OpenMP: maximum threads =    1



============================== echo of input deck ==============================
title "Li2-REMOVE"
echo
start Li2-REMOVE

memory total 24 gb

geometry  units angstrom
symmetry c1
Li  0    0    0
Li  0    0    4.0095
end

basis spherical
   * library cc-pvtz
end

scf
thresh 1.0e-10
tol2e 1.0e-10
rhf
singlet
maxiter 200
end

tce
   ccsd
   maxiter 200
   thresh 1.e-6
   2eorb
   2emet 13
   tilesize 5
end

set tce:qducc T
set tce:nactv 7

task tce energy

================================================================================


                                         
                                         


              Northwest Computational Chemistry Package (NWChem) 6.8
              ------------------------------------------------------


                    Environmental Molecular Sciences Laboratory
                       Pacific Northwest National Laboratory
                                Richland, WA 99352

                              Copyright (c) 1994-2018
                       Pacific Northwest National Laboratory
                            Battelle Memorial Institute

             NWChem is an open-source computational chemistry package
                        distributed under the terms of the
                      Educational Community License (ECL) 2.0
             A copy of the license is included with this distribution
                              in the LICENSE.TXT file

                                  ACKNOWLEDGMENT
                                  --------------

            This software and its documentation were developed at the
            EMSL at Pacific Northwest National Laboratory, a multiprogram
            national laboratory, operated for the U.S. Department of Energy
            by Battelle under Contract Number DE-AC05-76RL01830. Support
            for this work was provided by the Department of Energy Office
            of Biological and Environmental Research, Office of Basic
            Energy Sciences, and the Office of Advanced Scientific Computing.


           Job information
           ---------------

    hostname        = WE35263ubuntu
    program         = /home/baum612/code/NWChem/nwchem/bin/LINUX64/nwchem
    date            = Mon Apr  8 23:45:57 2019

    compiled        = Thu_Apr_04_14:53:19_2019
    source          = /home/baum612/code/NWChem/nwchem
    nwchem branch   = Development
    nwchem revision = nwchem_on_git-845-ga8f432451
    ga revision     = 5.6.5
    use scalapack   = F
    input           = Li2-10_ORBITALS-ccpVTZ-4_0095.nw
    prefix          = Li2-REMOVE.
    data base       = ./Li2-REMOVE.db
    status          = startup
    nproc           =        1
    time left       =     -1s



           Memory information
           ------------------

    heap     =  805306368 doubles =   6144.0 Mbytes
    stack    =  805306365 doubles =   6144.0 Mbytes
    global   = 1610612736 doubles =  12288.0 Mbytes (distinct from heap & stack)
    total    = 3221225469 doubles =  24576.0 Mbytes
    verify   = yes
    hardfail = no 


           Directory information
           ---------------------

  0 permanent = .
  0 scratch   = .




                                NWChem Input Module
                                -------------------


                                    Li2-REMOVE
                                    ----------

 Scaling coordinates for geometry "geometry" by  1.889725989
 (inverse scale =  0.529177249)

 Turning off AUTOSYM since
 SYMMETRY directive was detected!


          ------
          auto-z
          ------
     1 autoz failed with cvr_scaling = 1.2 changing to 1.3
     2 autoz failed with cvr_scaling = 1.3 changing to 1.4
     3 autoz failed with cvr_scaling = 1.4 changing to 1.5
     4 autoz failed with cvr_scaling = 1.5 changing to 1.6
  no constraints, skipping    0.0000000000000000     
  no constraints, skipping    0.0000000000000000     


                             Geometry "geometry" -> ""
                             -------------------------

 Output coordinates in angstroms (scale by  1.889725989 to convert to a.u.)

  No.       Tag          Charge          X              Y              Z
 ---- ---------------- ---------- -------------- -------------- --------------
    1 Li                   3.0000     0.00000000     0.00000000    -2.00475000
    2 Li                   3.0000     0.00000000     0.00000000     2.00475000

      Atomic Mass 
      ----------- 

      Li                 7.016000


 Effective nuclear repulsion energy (a.u.)       1.1878277194

            Nuclear Dipole moment (a.u.) 
            ----------------------------
        X                 Y               Z
 ---------------- ---------------- ----------------
     0.0000000000     0.0000000000     0.0000000000



                                Z-matrix (autoz)
                                -------- 

 Units are Angstrom for bonds and degrees for angles

      Type          Name      I     J     K     L     M      Value
      ----------- --------  ----- ----- ----- ----- ----- ----------
    1 Stretch                  1     2                       4.00950


            XYZ format geometry
            -------------------
     2
 geometry
 Li                    0.00000000     0.00000000    -2.00475000
 Li                    0.00000000     0.00000000     2.00475000



 Summary of "ao basis" -> "" (spherical)
 ------------------------------------------------------------------------------
       Tag                 Description            Shells   Functions and Types
 ---------------- ------------------------------  ------  ---------------------
 *                          cc-pvtz                   on all atoms 


                      Basis "ao basis" -> "ao basis" (spherical)
                      -----
  Li (Lithium)
  ------------
            Exponent  Coefficients 
       -------------- ---------------------------------------------------------
  1 S  5.98800000E+03  0.000133
  1 S  8.98900000E+02  0.001025
  1 S  2.05900000E+02  0.005272
  1 S  5.92400000E+01  0.020929
  1 S  1.98700000E+01  0.066340
  1 S  7.40600000E+00  0.165775
  1 S  2.93000000E+00  0.315038
  1 S  1.18900000E+00  0.393523
  1 S  4.79800000E-01  0.190870

  2 S  5.98800000E+03 -0.000021
  2 S  8.98900000E+02 -0.000161
  2 S  2.05900000E+02 -0.000820
  2 S  5.92400000E+01 -0.003326
  2 S  1.98700000E+01 -0.010519
  2 S  7.40600000E+00 -0.028097
  2 S  2.93000000E+00 -0.055936
  2 S  1.18900000E+00 -0.099237
  2 S  4.79800000E-01 -0.112189

  3 S  7.50900000E-02  1.000000

  4 S  2.83200000E-02  1.000000

  5 P  3.26600000E+00  0.008630
  5 P  6.51100000E-01  0.047538
  5 P  1.69600000E-01  0.209772

  6 P  5.57800000E-02  1.000000

  7 P  2.05000000E-02  1.000000

  8 D  1.87400000E-01  1.000000

  9 D  8.01000000E-02  1.000000

 10 F  1.82900000E-01  1.000000



 Summary of "ao basis" -> "ao basis" (spherical)
 ------------------------------------------------------------------------------
       Tag                 Description            Shells   Functions and Types
 ---------------- ------------------------------  ------  ---------------------
 Li                         cc-pvtz                 10       30   4s3p2d1f


                                 NWChem SCF Module
                                 -----------------


                                    Li2-REMOVE



  ao basis        = "ao basis"
  functions       =    60
  atoms           =     2
  closed shells   =     3
  open shells     =     0
  charge          =   0.00
  wavefunction    = RHF 
  input vectors   = atomic
  output vectors  = ./Li2-REMOVE.movecs
  use symmetry    = F
  symmetry adapt  = F


 Summary of "ao basis" -> "ao basis" (spherical)
 ------------------------------------------------------------------------------
       Tag                 Description            Shells   Functions and Types
 ---------------- ------------------------------  ------  ---------------------
 Li                         cc-pvtz                 10       30   4s3p2d1f



 Forming initial guess at       0.1s


      Superposition of Atomic Density Guess
      -------------------------------------

 Sum of atomic energies:         -14.86535760

      Non-variational initial energy
      ------------------------------

 Total energy =     -14.762097
 1-e energy   =     -21.800217
 2-e energy   =       5.850292
 HOMO         =      -0.122331
 LUMO         =      -0.046377


 Starting SCF solution at       0.1s



 ----------------------------------------------
         Quadratically convergent ROHF

 Convergence threshold     :          1.000E-10
 Maximum no. of iterations :          200
 Final Fock-matrix accuracy:          1.000E-10
 ----------------------------------------------


 Integral file          = ./Li2-REMOVE.aoints.0
 Record size in doubles =    65536    No. of integs per rec  =    43688
 Max. records in memory =       54    Max. records in file   =  1545288
 No. of bits per label  =        8    No. of bits per value  =       64


 #quartets = 2.214D+04 #integrals = 3.711D+05 #direct =  0.0% #cached =100.0%


              iter       energy          gnorm     gmax       time
             ----- ------------------- --------- --------- --------
                 1      -14.8504477454  4.72D-02  2.65D-02      0.4
                 2      -14.8516975477  1.80D-03  1.02D-03      0.4
                 3      -14.8516997094  2.67D-06  1.97D-06      0.4
                 4      -14.8516997094  9.50D-12  7.12D-12      0.5


       Final RHF  results 
       ------------------ 

         Total SCF energy =    -14.851699709421
      One-electron energy =    -21.823799437487
      Two-electron energy =      5.784272008650
 Nuclear repulsion energy =      1.187827719416

        Time for solution =      0.3s


             Final eigenvalues
             -----------------

              1      
    1   -2.4846
    2   -2.4846
    3   -0.1584
    4   -0.0108
    5    0.0274
    6    0.0274
    7    0.0325
    8    0.0490
    9    0.0490
   10    0.0583
   11    0.1124
   12    0.1232
   13    0.1232

                       ROHF Final Molecular Orbital Analysis
                       -------------------------------------

 Vector    2  Occ=2.000000D+00  E=-2.484616D+00
              MO Center=  9.6D-18, -3.3D-17, -3.1D-06, r^2= 4.1D+00
   Bfn.  Coefficient  Atom+Function         Bfn.  Coefficient  Atom+Function  
  ----- ------------  ---------------      ----- ------------  ---------------
     1      0.707152  1 Li s                 31     -0.707151  2 Li s          

 Vector    3  Occ=2.000000D+00  E=-1.583935D-01
              MO Center=  1.5D-15,  1.4D-15, -3.6D-11, r^2= 7.4D+00
   Bfn.  Coefficient  Atom+Function         Bfn.  Coefficient  Atom+Function  
  ----- ------------  ---------------      ----- ------------  ---------------
     4      0.386082  1 Li s                 34      0.386082  2 Li s          
     3      0.242552  1 Li s                 33      0.242552  2 Li s          
     2      0.155284  1 Li s                 32      0.155284  2 Li s          

 Vector    4  Occ=0.000000D+00  E=-1.075979D-02
              MO Center= -8.3D-16,  2.8D-16,  1.6D-10, r^2= 1.9D+01
   Bfn.  Coefficient  Atom+Function         Bfn.  Coefficient  Atom+Function  
  ----- ------------  ---------------      ----- ------------  ---------------
    13      0.415103  1 Li pz                43      0.415103  2 Li pz         
     4     -0.229199  1 Li s                 34      0.229199  2 Li s          
     3     -0.196008  1 Li s                 33      0.196008  2 Li s          

 Vector    5  Occ=0.000000D+00  E= 2.742368D-02
              MO Center= -9.2D-16,  1.2D-15,  2.0D-10, r^2= 1.9D+01
   Bfn.  Coefficient  Atom+Function         Bfn.  Coefficient  Atom+Function  
  ----- ------------  ---------------      ----- ------------  ---------------
    12      0.548740  1 Li py                42      0.548740  2 Li py         

 Vector    6  Occ=0.000000D+00  E= 2.742368D-02
              MO Center=  3.7D-15,  2.2D-16,  2.0D-10, r^2= 1.9D+01
   Bfn.  Coefficient  Atom+Function         Bfn.  Coefficient  Atom+Function  
  ----- ------------  ---------------      ----- ------------  ---------------
    11      0.548740  1 Li px                41      0.548740  2 Li px         

 Vector    7  Occ=0.000000D+00  E= 3.252889D-02
              MO Center= -6.0D-15, -1.5D-15, -6.3D-11, r^2= 2.6D+01
   Bfn.  Coefficient  Atom+Function         Bfn.  Coefficient  Atom+Function  
  ----- ------------  ---------------      ----- ------------  ---------------
    13      0.712266  1 Li pz                43     -0.712266  2 Li pz         
     4     -0.492751  1 Li s                 34     -0.492751  2 Li s          

 Vector    8  Occ=0.000000D+00  E= 4.897827D-02
              MO Center=  4.2D-16,  2.0D-17, -2.0D-10, r^2= 2.7D+01
   Bfn.  Coefficient  Atom+Function         Bfn.  Coefficient  Atom+Function  
  ----- ------------  ---------------      ----- ------------  ---------------
    11      0.993695  1 Li px                41     -0.993695  2 Li px         
    12     -0.517722  1 Li py                42      0.517722  2 Li py         

 Vector    9  Occ=0.000000D+00  E= 4.897827D-02
              MO Center= -7.2D-15, -1.3D-14, -2.0D-10, r^2= 2.7D+01
   Bfn.  Coefficient  Atom+Function         Bfn.  Coefficient  Atom+Function  
  ----- ------------  ---------------      ----- ------------  ---------------
    12      0.993695  1 Li py                42     -0.993695  2 Li py         
    11      0.517722  1 Li px                41     -0.517722  2 Li px         

 Vector   10  Occ=0.000000D+00  E= 5.834706D-02
              MO Center=  6.5D-15,  1.3D-14, -1.5D-10, r^2= 3.7D+01
   Bfn.  Coefficient  Atom+Function         Bfn.  Coefficient  Atom+Function  
  ----- ------------  ---------------      ----- ------------  ---------------
     4      2.310010  1 Li s                 34     -2.310010  2 Li s          
    13      1.791650  1 Li pz                43      1.791650  2 Li pz         

 Vector   11  Occ=0.000000D+00  E= 1.123674D-01
              MO Center= -1.7D-17, -5.3D-16, -1.0D-10, r^2= 2.2D+01
   Bfn.  Coefficient  Atom+Function         Bfn.  Coefficient  Atom+Function  
  ----- ------------  ---------------      ----- ------------  ---------------
    13      0.999810  1 Li pz                43     -0.999810  2 Li pz         
    10     -0.895170  1 Li pz                40      0.895170  2 Li pz         

 Vector   12  Occ=0.000000D+00  E= 1.231502D-01
              MO Center=  5.7D-16, -1.1D-15,  4.1D-10, r^2= 1.7D+01
   Bfn.  Coefficient  Atom+Function         Bfn.  Coefficient  Atom+Function  
  ----- ------------  ---------------      ----- ------------  ---------------
     8      0.821230  1 Li px                38      0.821230  2 Li px         
    11     -0.604742  1 Li px                41     -0.604742  2 Li px         
     9     -0.472292  1 Li py                39     -0.472292  2 Li py         
    12      0.347789  1 Li py                42      0.347789  2 Li py         

 Vector   13  Occ=0.000000D+00  E= 1.231502D-01
              MO Center=  2.4D-15,  9.6D-16,  4.1D-10, r^2= 1.7D+01
   Bfn.  Coefficient  Atom+Function         Bfn.  Coefficient  Atom+Function  
  ----- ------------  ---------------      ----- ------------  ---------------
     9      0.821230  1 Li py                39      0.821230  2 Li py         
    12     -0.604742  1 Li py                42     -0.604742  2 Li py         
     8      0.472292  1 Li px                38      0.472292  2 Li px         
    11     -0.347789  1 Li px                41     -0.347789  2 Li px         

 Vector   14  Occ=0.000000D+00  E= 1.407775D-01
              MO Center= -1.1D-15,  5.0D-16, -4.0D-10, r^2= 1.8D+01
   Bfn.  Coefficient  Atom+Function         Bfn.  Coefficient  Atom+Function  
  ----- ------------  ---------------      ----- ------------  ---------------
    12     -0.951296  1 Li py                42      0.951296  2 Li py         
     9      0.913192  1 Li py                39     -0.913192  2 Li py         
    11     -0.445047  1 Li px                41      0.445047  2 Li px         
     8      0.427221  1 Li px                38     -0.427221  2 Li px         

 Vector   15  Occ=0.000000D+00  E= 1.407775D-01
              MO Center= -1.6D-16, -1.2D-15, -4.0D-10, r^2= 1.8D+01
   Bfn.  Coefficient  Atom+Function         Bfn.  Coefficient  Atom+Function  
  ----- ------------  ---------------      ----- ------------  ---------------
    11     -0.951296  1 Li px                41      0.951296  2 Li px         
     8      0.913192  1 Li px                38     -0.913192  2 Li px         
    12      0.445047  1 Li py                42     -0.445047  2 Li py         
     9     -0.427221  1 Li py                39      0.427221  2 Li py         

 Vector   16  Occ=0.000000D+00  E= 1.487119D-01
              MO Center=  1.0D-15, -3.6D-17,  3.3D-09, r^2= 1.4D+01
   Bfn.  Coefficient  Atom+Function         Bfn.  Coefficient  Atom+Function  
  ----- ------------  ---------------      ----- ------------  ---------------
     3      1.363005  1 Li s                 33      1.363005  2 Li s          
     4     -1.064508  1 Li s                 34     -1.064508  2 Li s          
     2      0.336199  1 Li s                 32      0.336199  2 Li s          
    21      0.152333  1 Li d  0              51      0.152333  2 Li d  0       

 Vector   17  Occ=0.000000D+00  E= 1.603359D-01
              MO Center= -2.4D-16,  1.4D-15, -2.2D-09, r^2= 1.4D+01
   Bfn.  Coefficient  Atom+Function         Bfn.  Coefficient  Atom+Function  
  ----- ------------  ---------------      ----- ------------  ---------------
     4      1.393436  1 Li s                 34     -1.393436  2 Li s          
    10      1.086197  1 Li pz                40      1.086197  2 Li pz         
     3     -0.560442  1 Li s                 33      0.560442  2 Li s          

 Vector   18  Occ=0.000000D+00  E= 2.014569D-01
              MO Center= -3.0D-16, -4.6D-16, -6.6D-10, r^2= 1.8D+01
   Bfn.  Coefficient  Atom+Function         Bfn.  Coefficient  Atom+Function  
  ----- ------------  ---------------      ----- ------------  ---------------
     4      4.155809  1 Li s                 34     -4.155809  2 Li s          
     3     -1.988810  1 Li s                 33      1.988810  2 Li s          
    13      1.518564  1 Li pz                43      1.518564  2 Li pz         
    21      0.581861  1 Li d  0              51     -0.581861  2 Li d  0       
    10      0.381854  1 Li pz                40      0.381854  2 Li pz         

 Vector   19  Occ=0.000000D+00  E= 2.185717D-01
              MO Center=  2.1D-16,  6.8D-17,  2.2D-10, r^2= 1.1D+01
   Bfn.  Coefficient  Atom+Function         Bfn.  Coefficient  Atom+Function  
  ----- ------------  ---------------      ----- ------------  ---------------
    23      0.671635  1 Li d  2              53      0.671635  2 Li d  2       
    19      0.388806  1 Li d -2              49      0.388806  2 Li d -2       

 Vector   20  Occ=0.000000D+00  E= 2.185717D-01
              MO Center= -2.3D-15, -2.3D-15,  2.2D-10, r^2= 1.1D+01
   Bfn.  Coefficient  Atom+Function         Bfn.  Coefficient  Atom+Function  
  ----- ------------  ---------------      ----- ------------  ---------------
    19      0.671635  1 Li d -2              49      0.671635  2 Li d -2       
    23     -0.388806  1 Li d  2              53     -0.388806  2 Li d  2       

 Vector   21  Occ=0.000000D+00  E= 2.206856D-01
              MO Center= -7.1D-18, -2.7D-16,  4.3D-11, r^2= 1.1D+01
   Bfn.  Coefficient  Atom+Function         Bfn.  Coefficient  Atom+Function  
  ----- ------------  ---------------      ----- ------------  ---------------
    20      0.668248  1 Li d -1              50     -0.668248  2 Li d -1       
    22     -0.211969  1 Li d  1              52      0.211969  2 Li d  1       
     9     -0.158884  1 Li py                39     -0.158884  2 Li py         

 Vector   22  Occ=0.000000D+00  E= 2.206856D-01
              MO Center=  2.6D-16, -2.0D-16,  4.3D-11, r^2= 1.1D+01
   Bfn.  Coefficient  Atom+Function         Bfn.  Coefficient  Atom+Function  
  ----- ------------  ---------------      ----- ------------  ---------------
    22      0.668248  1 Li d  1              52     -0.668248  2 Li d  1       
    20      0.211969  1 Li d -1              50     -0.211969  2 Li d -1       
     8      0.158884  1 Li px                38      0.158884  2 Li px         

 Vector   23  Occ=0.000000D+00  E= 2.514460D-01
              MO Center=  8.7D-16, -1.7D-15, -2.1D-10, r^2= 1.2D+01
   Bfn.  Coefficient  Atom+Function         Bfn.  Coefficient  Atom+Function  
  ----- ------------  ---------------      ----- ------------  ---------------
    23      0.825039  1 Li d  2              53     -0.825039  2 Li d  2       
    19     -0.247421  1 Li d -2              49      0.247421  2 Li d -2       
    18     -0.154982  1 Li d  2              48      0.154982  2 Li d  2       

 Vector   24  Occ=0.000000D+00  E= 2.514460D-01
              MO Center=  2.0D-15,  2.9D-15, -2.1D-10, r^2= 1.2D+01
   Bfn.  Coefficient  Atom+Function         Bfn.  Coefficient  Atom+Function  
  ----- ------------  ---------------      ----- ------------  ---------------
    19      0.825039  1 Li d -2              49     -0.825039  2 Li d -2       
    23      0.247421  1 Li d  2              53     -0.247421  2 Li d  2       
    14     -0.154982  1 Li d -2              44      0.154982  2 Li d -2       

 Vector   25  Occ=0.000000D+00  E= 2.860484D-01
              MO Center=  1.4D-16, -1.3D-16,  6.8D-11, r^2= 1.4D+01
   Bfn.  Coefficient  Atom+Function         Bfn.  Coefficient  Atom+Function  
  ----- ------------  ---------------      ----- ------------  ---------------
    21      0.832175  1 Li d  0              51      0.832175  2 Li d  0       
     3     -0.652984  1 Li s                 33     -0.652984  2 Li s          
    13      0.486548  1 Li pz                43     -0.486548  2 Li pz         
    10     -0.460079  1 Li pz                40      0.460079  2 Li pz         
     4      0.280013  1 Li s                 34      0.280013  2 Li s          

 Vector   26  Occ=0.000000D+00  E= 3.111108D-01
              MO Center= -5.8D-16,  1.5D-15, -5.3D-11, r^2= 1.3D+01
   Bfn.  Coefficient  Atom+Function         Bfn.  Coefficient  Atom+Function  
  ----- ------------  ---------------      ----- ------------  ---------------
    20      1.087991  1 Li d -1              50      1.087991  2 Li d -1       
    12      0.268754  1 Li py                42     -0.268754  2 Li py         
    22     -0.230312  1 Li d  1              52     -0.230312  2 Li d  1       
    15     -0.195384  1 Li d -1              45     -0.195384  2 Li d -1       
     9      0.158980  1 Li py                39     -0.158980  2 Li py         

 Vector   27  Occ=0.000000D+00  E= 3.111108D-01
              MO Center=  9.1D-16, -1.5D-15, -5.3D-11, r^2= 1.3D+01
   Bfn.  Coefficient  Atom+Function         Bfn.  Coefficient  Atom+Function  
  ----- ------------  ---------------      ----- ------------  ---------------
    22      1.087991  1 Li d  1              52      1.087991  2 Li d  1       
    11     -0.268754  1 Li px                41      0.268754  2 Li px         
    20      0.230312  1 Li d -1              50      0.230312  2 Li d -1       
    17     -0.195384  1 Li d  1              47     -0.195384  2 Li d  1       
     8     -0.158980  1 Li px                38      0.158980  2 Li px         

 Vector   28  Occ=0.000000D+00  E= 3.720775D-01
              MO Center= -2.5D-16,  1.1D-16, -3.3D-10, r^2= 1.2D+01
   Bfn.  Coefficient  Atom+Function         Bfn.  Coefficient  Atom+Function  
  ----- ------------  ---------------      ----- ------------  ---------------
     4      2.585792  1 Li s                 34     -2.585792  2 Li s          
    21      1.521141  1 Li d  0              51     -1.521141  2 Li d  0       
    10      1.312185  1 Li pz                40      1.312185  2 Li pz         
    13      0.804711  1 Li pz                43      0.804711  2 Li pz         
     7      0.348351  1 Li pz                37      0.348351  2 Li pz         

 Vector   29  Occ=0.000000D+00  E= 4.567936D-01
              MO Center= -8.6D-16, -6.3D-16,  5.9D-10, r^2= 9.2D+00
   Bfn.  Coefficient  Atom+Function         Bfn.  Coefficient  Atom+Function  
  ----- ------------  ---------------      ----- ------------  ---------------
     5      0.973531  1 Li px                 8     -0.971913  1 Li px         
    35      0.973531  2 Li px                38     -0.971913  2 Li px         
    11      0.374503  1 Li px                41      0.374503  2 Li px         

 Vector   30  Occ=0.000000D+00  E= 4.567936D-01
              MO Center= -1.3D-15,  8.0D-16,  5.9D-10, r^2= 9.2D+00
   Bfn.  Coefficient  Atom+Function         Bfn.  Coefficient  Atom+Function  
  ----- ------------  ---------------      ----- ------------  ---------------
     6      0.973531  1 Li py                 9     -0.971913  1 Li py         
    36      0.973531  2 Li py                39     -0.971913  2 Li py         
    12      0.374503  1 Li py                42      0.374503  2 Li py         

 Vector   31  Occ=0.000000D+00  E= 4.755780D-01
              MO Center= -7.1D-16,  9.6D-16, -5.9D-10, r^2= 9.4D+00
   Bfn.  Coefficient  Atom+Function         Bfn.  Coefficient  Atom+Function  
  ----- ------------  ---------------      ----- ------------  ---------------
     8      1.196013  1 Li px                38     -1.196013  2 Li px         
     5     -1.001890  1 Li px                35      1.001890  2 Li px         
    11     -0.585184  1 Li px                41      0.585184  2 Li px         
    22     -0.159766  1 Li d  1              52     -0.159766  2 Li d  1       

 Vector   32  Occ=0.000000D+00  E= 4.755780D-01
              MO Center=  6.9D-16,  6.6D-16, -5.9D-10, r^2= 9.4D+00
   Bfn.  Coefficient  Atom+Function         Bfn.  Coefficient  Atom+Function  
  ----- ------------  ---------------      ----- ------------  ---------------
     9      1.196013  1 Li py                39     -1.196013  2 Li py         
     6     -1.001890  1 Li py                36      1.001890  2 Li py         
    12     -0.585184  1 Li py                42      0.585184  2 Li py         
    20      0.159766  1 Li d -1              50      0.159766  2 Li d -1       

 Vector   33  Occ=0.000000D+00  E= 4.963420D-01
              MO Center= -2.6D-16,  6.2D-16,  1.9D-09, r^2= 9.0D+00
   Bfn.  Coefficient  Atom+Function         Bfn.  Coefficient  Atom+Function  
  ----- ------------  ---------------      ----- ------------  ---------------
     7      0.981861  1 Li pz                37     -0.981861  2 Li pz         
    10     -0.937122  1 Li pz                40      0.937122  2 Li pz         
    13      0.436395  1 Li pz                43     -0.436395  2 Li pz         
     3      0.221811  1 Li s                 33      0.221811  2 Li s          
     4     -0.190409  1 Li s                 34     -0.190409  2 Li s          

 Vector   34  Occ=0.000000D+00  E= 5.046027D-01
              MO Center=  6.5D-16, -4.3D-16, -1.9D-09, r^2= 1.2D+01
   Bfn.  Coefficient  Atom+Function         Bfn.  Coefficient  Atom+Function  
  ----- ------------  ---------------      ----- ------------  ---------------
    10      2.924587  1 Li pz                40      2.924587  2 Li pz         
     4      2.562210  1 Li s                 34     -2.562210  2 Li s          
    21      1.295278  1 Li d  0              51     -1.295278  2 Li d  0       
     7     -1.032914  1 Li pz                37     -1.032914  2 Li pz         
    13      0.206865  1 Li pz                43      0.206865  2 Li pz         


 center of mass
 --------------
 x =   0.00000000 y =   0.00000000 z =   0.00000000

 moments of inertia (a.u.)
 ------------------
         201.389902601465           0.000000000000           0.000000000000
           0.000000000000         201.389902601465           0.000000000000
           0.000000000000           0.000000000000           0.000000000000

  Mulliken analysis of the total density
  --------------------------------------

    Atom       Charge   Shell Charges
 -----------   ------   -------------------------------------------------------
    1 Li   3     3.00   2.00 -0.02  0.32  0.63  0.01  0.03  0.02  0.00  0.00  0.00
    2 Li   3     3.00   2.00 -0.02  0.32  0.63  0.01  0.03  0.02  0.00  0.00  0.00

       Multipole analysis of the density wrt the origin
       ------------------------------------------------

     L   x y z        total         open         nuclear
     -   - - -        -----         ----         -------
     0   0 0 0     -0.000000      0.000000      6.000000

     1   1 0 0     -0.000000      0.000000      0.000000
     1   0 1 0     -0.000000      0.000000      0.000000
     1   0 0 1      0.000000      0.000000      0.000000

     2   2 0 0    -13.962604      0.000000      0.000000
     2   1 1 0     -0.000000      0.000000      0.000000
     2   1 0 1      0.000000      0.000000      0.000000
     2   0 2 0    -13.962604      0.000000      0.000000
     2   0 1 1      0.000000      0.000000      0.000000
     2   0 0 2      1.663384      0.000000     86.113128


 Parallel integral file used       9 records with       0 large values

                   NWChem Extensible Many-Electron Theory Module
                   ---------------------------------------------

              ======================================================
                   This portion of the program was automatically
                  generated by a Tensor Contraction Engine (TCE).
                  The development of this portion of the program
                 and TCE was supported by US Department of Energy,
                Office of Science, Office of Basic Energy Science.
                      TCE is a product of Battelle and PNNL.
              Please cite: S.Hirata, J.Phys.Chem.A 107, 9887 (2003).
              ======================================================

                                    Li2-REMOVE


            General Information
            -------------------
      Number of processors :     1
         Wavefunction type : Restricted Hartree-Fock
          No. of electrons :     6
           Alpha electrons :     3
            Beta electrons :     3
           No. of orbitals :   120
            Alpha orbitals :    60
             Beta orbitals :    60
        Alpha frozen cores :     0
         Beta frozen cores :     0
     Alpha frozen virtuals :     0
      Beta frozen virtuals :     0
         Spin multiplicity : singlet 
    Number of AO functions :    60
       Number of AO shells :    20
        Use of symmetry is : off
      Symmetry adaption is : off
         Schwarz screening : 0.10D-09

          Correlation Information
          -----------------------
          Calculation type : Coupled-cluster singles & doubles                           
   Perturbative correction : none                                                        
            Max iterations :      200
        Residual threshold : 0.10D-05
     T(0) DIIS level shift : 0.00D+00
     L(0) DIIS level shift : 0.00D+00
     T(1) DIIS level shift : 0.00D+00
     L(1) DIIS level shift : 0.00D+00
     T(R) DIIS level shift : 0.00D+00
     T(I) DIIS level shift : 0.00D+00
   CC-T/L Amplitude update :  5-th order DIIS
                I/O scheme : Global Array Library
        L-threshold :  0.10D-05
        EOM-threshold :  0.10D-05
 no EOMCCSD initial starts read in
 TCE RESTART OPTIONS
 READ_INT:   F
 WRITE_INT:  F
 READ_TA:    F
 WRITE_TA:   F
 READ_XA:    F
 WRITE_XA:   F
 READ_IN3:   F
 WRITE_IN3:  F
 SLICE:      F
 D4D5:       F
 quantumc:   F
 qrotation:  F
 qducc:      T
 nacto:                         0
 nrotv:                         0
 nrot:                          0

            Memory Information
            ------------------
          Available GA space size is    1610609136 doubles
          Available MA space size is    1610610012 doubles

 Maximum block size supplied by input
 Maximum block size         5 doubles

 tile_dim =      5

 Block   Spin    Irrep     Size     Offset   Alpha
 -------------------------------------------------
   1    alpha     a      3 doubles       0       1
   2    beta      a      3 doubles       3       1
   3    alpha     a      4 doubles       6       3
   4    alpha     a      5 doubles      10       4
   5    alpha     a      5 doubles      15       5
   6    alpha     a      5 doubles      20       6
   7    alpha     a      4 doubles      25       7
   8    alpha     a      5 doubles      29       8
   9    alpha     a      5 doubles      34       9
  10    alpha     a      5 doubles      39      10
  11    alpha     a      4 doubles      44      11
  12    alpha     a      5 doubles      48      12
  13    alpha     a      5 doubles      53      13
  14    alpha     a      5 doubles      58      14
  15    beta      a      4 doubles      63       3
  16    beta      a      5 doubles      67       4
  17    beta      a      5 doubles      72       5
  18    beta      a      5 doubles      77       6
  19    beta      a      4 doubles      82       7
  20    beta      a      5 doubles      86       8
  21    beta      a      5 doubles      91       9
  22    beta      a      5 doubles      96      10
  23    beta      a      4 doubles     101      11
  24    beta      a      5 doubles     105      12
  25    beta      a      5 doubles     110      13
  26    beta      a      5 doubles     115      14

 Global array virtual files algorithm will be used

 Parallel file system coherency ......... OK

 Integral file          = ./Li2-REMOVE.aoints.0
 Record size in doubles =    65536    No. of integs per rec  =    43688
 Max. records in memory =       54    Max. records in file   =  1545288
 No. of bits per label  =        8    No. of bits per value  =       64


 #quartets = 2.214D+04 #integrals = 3.711D+05 #direct =  0.0% #cached =100.0%


 Fock matrix recomputed
 1-e file size   =             3600
 1-e file name   = ./Li2-REMOVE.f1
 Cpu & wall time / sec            0.2            0.2
 4-electron integrals stored in orbital form

 v2    file size   =          1905240
 4-index algorithm nr.  13 is used
 imaxsize =       30
 imaxsize ichop =        0
 Cpu & wall time / sec            4.7            4.8
 T1-number-of-tasks                   12

 t1 file size   =              171
 t1 file name   = ./Li2-REMOVE.t1
 t1 file handle =       -998
 T2-number-of-boxes                  222

 t2 file size   =            45090
 t2 file name   = ./Li2-REMOVE.t2
 t2 file handle =       -996

 CCSD iterations
 -----------------------------------------------------------------
 Iter          Residuum       Correlation     Cpu    Wall    V2*C2
 -----------------------------------------------------------------
    1   0.0877851377041  -0.0432706140471     1.8     2.0     0.6
    2   0.0245720743444  -0.0510733378142     1.9     2.0     0.6
    3   0.0129537896651  -0.0544449651232     1.9     2.0     0.6
    4   0.0080770434120  -0.0558680014651     1.8     1.9     0.6
    5   0.0052875878968  -0.0567027197203     1.8     1.9     0.5
 MICROCYCLE DIIS UPDATE:                    5                    5
    6   0.0011532812663  -0.0579486962848     1.8     2.0     0.6
    7   0.0007111473752  -0.0579914970017     1.8     1.9     0.5
    8   0.0004827725846  -0.0580077267839     1.8     1.9     0.5
    9   0.0003599136470  -0.0580198620347     1.8     1.9     0.5
   10   0.0002648386359  -0.0580310950487     1.8     1.9     0.5
 MICROCYCLE DIIS UPDATE:                   10                    5
   11   0.0000429576844  -0.0580629233093     1.8     2.0     0.5
   12   0.0000212832984  -0.0580652455924     1.9     2.0     0.6
   13   0.0000124223147  -0.0580672644173     1.9     2.0     0.6
   14   0.0000077073145  -0.0580681430977     1.8     2.0     0.6
   15   0.0000049865610  -0.0580687096139     1.9     1.9     0.5
 MICROCYCLE DIIS UPDATE:                   15                    5
   16   0.0000014305947  -0.0580695460379     1.8     1.9     0.6
   17   0.0000008564986  -0.0580695954220     1.8     2.0     0.5
 -----------------------------------------------------------------
 Iterations converged
 CCSD correlation energy / hartree =        -0.058069595422016
 CCSD total energy / hartree       =       -14.909769304842573

 Singles contributions

 Doubles contributions
     4a   (alpha)     4a   (beta ) ---     3a   (alpha)     3a   (beta )       -0.2368705162
     4a   (alpha)    10a   (beta ) ---     3a   (alpha)     3a   (beta )        0.1104357744
    10a   (alpha)     4a   (beta ) ---     3a   (alpha)     3a   (beta )        0.1104357744
 Ground state specification:
 exp(T)|Ref>~(1+T)|Ref>
 ------- a(p)+/a(q) strings ----------

 singles norm

 doubles norm

 Reference string
  0.96202788876124912      :(1a)+ (2a)+ (3a)+ (1b)+ (2b)+ (3b)+ |0>

 Singles strings

 Doubles strings
 -0.22787604264557673      :(4a)+ (4b)+ (3b)  (3a)  (1a)+ (2a)+ (3a)+ (1b)+ (2b)+ (3b)+ |0>
  0.10624229485888549      :(4a)+ (10b)+(3b)  (3a)  (1a)+ (2a)+ (3a)+ (1b)+ (2b)+ (3b)+ |0>
  0.10624229485888552      :(10a)+(4b)+ (3b)  (3a)  (1a)+ (2a)+ (3a)+ (1b)+ (2b)+ (3b)+ |0>
 -------------------------------------
 enrep_tce =    1.1878277194157087     
  EHF(total)         =       -14.85169971
  Shift (HFtot-HFA)  =         0.00000000
 ALL OCCUPIED ORBITALS ARE ACTIVE IN DUCC --> NO SHIFT
 Number of active orbitals                   10
 Number of active alpha electrons                    3
 Number of active beta electrons                    3
  nos                     6
  nvs                   114
 noas                     3
 nobs                     3
 nvas                    57
 nvbs                    57
 nactv                     7
 From DUCC CCSD corr. ene.  -5.8069595422130610E-002
 From DUCC CCSD corr. ene.-e-part   5.9613015606111312E-002
 begin_one_electron_integrals
    1    1        -4.8375193220
    1    3         0.1119564547
    1    4         0.0000000671
    1    7        -0.0034122231
    1   10        -0.0000000517
    2    2        -4.8374995485
    2    3         0.0000000852
    2    4        -0.0881759622
    2    7        -0.0000000026
    2   10         0.0680221872
    3    1         0.1119564547
    3    2         0.0000000852
    3    3        -1.2533493575
    3    7        -0.0914815199
    4    1         0.0000000671
    4    2        -0.0881759622
    4    4        -0.9509536862
    4   10         0.2513291530
    5    5        -0.7823836520
    6    6        -0.7823836520
    7    1        -0.0034122231
    7    2        -0.0000000026
    7    3        -0.0914815199
    7    7        -0.7655121615
    8    8        -0.6542379690
    9    9        -0.6542379690
   10    1        -0.0000000517
   10    2         0.0680221872
   10    4         0.2513291530
   10   10        -0.6472136074
 end_one_electron_integrals
 begin_two_electron_integrals
    1    1    1    1        0.8843604887
    2    1    1    1       -0.0000011446
    2    2    1    1        0.8843498755
    2    1    2    1        0.7524210748
    2    2    2    1        0.0000011447
    2    2    2    2        0.8843370607
    3    1    1    1       -0.0552858061
    3    2    1    1        0.0000000426
    3    3    1    1        0.2277163427
    3    1    2    1        0.0000000423
    3    1    2    2       -0.0552861623
    3    2    2    1       -0.0556440436
    3    2    2    2       -0.0000001267
    3    3    2    2        0.2277169010
    3    1    3    1        0.0044927436
    3    2    3    2        0.0044957796
    3    3    3    1       -0.0011098842
    3    3    3    2       -0.0000000008
    3    3    3    3        0.1927102905
    4    1    1    1       -0.0000000997
    4    2    1    1        0.0440572502
    4    3    1    1        0.0000000982
    4    4    1    1        0.1739121558
    4    1    2    1        0.0435346684
    4    1    2    2        0.0000000327
    4    2    2    1        0.0000000331
    4    2    2    2        0.0440538394
    4    3    2    1       -0.0645276590
    4    3    2    2       -0.0000000982
    4    4    2    2        0.1739112441
    4    1    3    1        0.0000000072
    4    1    3    2       -0.0047473524
    4    1    3    3       -0.0000000014
    4    2    3    1       -0.0047449256
    4    2    3    2       -0.0000000072
    4    2    3    3        0.0018467582
    4    3    3    1       -0.0000000010
    4    3    3    2        0.0012730495
    4    4    3    1       -0.0008699722
    4    4    3    2       -0.0000000007
    4    4    3    3        0.1427782124
    4    1    4    1        0.0047234807
    4    2    4    2        0.0047268597
    4    3    4    1       -0.0007733562
    4    3    4    2       -0.0000000006
    4    3    4    3        0.0333129866
    4    4    4    1       -0.0000000002
    4    4    4    2        0.0002415601
    4    4    4    4        0.1390250222
    5    5    1    1        0.1394984596
    5    5    2    2        0.1394988865
    5    5    3    1        0.0000348894
    5    5    3    3        0.1353612756
    5    5    4    1       -0.0000000001
    5    5    4    2        0.0001958286
    5    5    4    4        0.1139630404
    5    1    5    1        0.0003626563
    5    2    5    2        0.0003566485
    5    3    5    1        0.0008580006
    5    3    5    2        0.0000000007
    5    3    5    3        0.0197875871
    5    4    5    1        0.0000000004
    5    4    5    2       -0.0005283815
    5    4    5    4        0.0088676358
    5    5    5    5        0.1212692812
    6    6    1    1        0.1394984596
    6    6    2    2        0.1394988865
    6    6    3    1        0.0000348894
    6    6    3    3        0.1353612756
    6    6    4    1       -0.0000000001
    6    6    4    2        0.0001958286
    6    6    4    4        0.1139630404
    6    6    5    5        0.1093496305
    6    1    6    1        0.0003626563
    6    2    6    2        0.0003566485
    6    3    6    1        0.0008580006
    6    3    6    2        0.0000000007
    6    3    6    3        0.0197875871
    6    4    6    1        0.0000000004
    6    4    6    2       -0.0005283815
    6    4    6    4        0.0088676358
    6    5    6    5        0.0059598253
    6    6    6    6        0.1212692812
    7    1    1    1        0.0000930966
    7    2    1    1        0.0000000014
    7    3    1    1        0.0171493061
    7    4    1    1       -0.0000000560
    7    7    1    1        0.1399849078
    7    1    2    1        0.0000000007
    7    1    2    2        0.0000957091
    7    2    2    1       -0.0008776735
    7    2    2    2       -0.0000000013
    7    3    2    2        0.0171487403
    7    4    2    1        0.0367843515
    7    4    2    2        0.0000000560
    7    7    2    2        0.1399849677
    7    1    3    1        0.0002105555
    7    1    3    3        0.0012126346
    7    2    3    2        0.0002047079
    7    2    3    3        0.0000000009
    7    3    3    1        0.0003525757
    7    3    3    2        0.0000000003
    7    3    3    3        0.0186257956
    7    4    3    1        0.0000000003
    7    4    3    2       -0.0004336054
    7    7    3    1       -0.0001143220
    7    7    3    3        0.1280040999
    7    1    4    1       -0.0000000003
    7    1    4    2        0.0001691229
    7    1    4    3       -0.0000000005
    7    1    4    4       -0.0005752329
    7    2    4    1        0.0001606744
    7    2    4    2        0.0000000003
    7    2    4    3        0.0006666741
    7    2    4    4       -0.0000000004
    7    3    4    1       -0.0000000005
    7    3    4    2        0.0006035274
    7    3    4    4       -0.0016202804
    7    4    4    1       -0.0004680478
    7    4    4    2       -0.0000000004
    7    4    4    3       -0.0265334463
    7    7    4    2        0.0000437448
    7    7    4    4        0.1242214072
    7    1    5    5        0.0002770912
    7    2    5    5        0.0000000002
    7    3    5    5        0.0087051592
    7    5    5    1        0.0000001287
    7    5    5    3        0.0006779252
    7    7    5    5        0.1039929778
    7    1    6    6        0.0002770912
    7    2    6    6        0.0000000002
    7    3    6    6        0.0087051592
    7    6    6    1        0.0000001287
    7    6    6    3        0.0006779252
    7    7    6    6        0.1039929778
    7    1    7    1        0.0005373824
    7    2    7    2        0.0005197854
    7    3    7    1        0.0011447931
    7    3    7    2        0.0000000009
    7    3    7    3        0.0194784159
    7    4    7    1        0.0000000007
    7    4    7    2       -0.0009436287
    7    4    7    4        0.0371535438
    7    5    7    5        0.0043330960
    7    6    7    6        0.0043330960
    7    7    7    1       -0.0000807230
    7    7    7    3        0.0000229325
    7    7    7    7        0.1191686684
    8    5    1    1        0.0000000241
    8    6    1    1       -0.0000000435
    8    8    1    1        0.1203834789
    8    5    2    1       -0.0158464366
    8    5    2    2       -0.0000000241
    8    6    2    1        0.0285706826
    8    6    2    2        0.0000000435
    8    8    2    2        0.1203833320
    8    5    3    2        0.0000893832
    8    6    3    1        0.0000000001
    8    6    3    2       -0.0001611554
    8    8    3    1       -0.0000801120
    8    8    3    3        0.1144231329
    8    5    4    1        0.0000548264
    8    5    4    3        0.0105121201
    8    6    4    1       -0.0000988505
    8    6    4    3       -0.0189530590
    8    8    4    2        0.0000291279
    8    8    4    4        0.1089729769
    8    1    5    1        0.0000000002
    8    1    5    2       -0.0001545383
    8    1    5    3        0.0000000003
    8    1    5    4        0.0002155251
    8    2    5    1       -0.0001568455
    8    2    5    2       -0.0000000002
    8    2    5    3       -0.0003395109
    8    2    5    4        0.0000000002
    8    3    5    1        0.0000000002
    8    3    5    2       -0.0002642118
    8    3    5    4        0.0033839420
    8    4    5    1        0.0002831026
    8    4    5    2        0.0000000002
    8    4    5    3        0.0058406451
    8    7    5    2        0.0000690048
    8    7    5    4       -0.0030326230
    8    8    5    5        0.1002902243
    8    1    6    1       -0.0000000004
    8    1    6    2        0.0002786282
    8    1    6    3       -0.0000000005
    8    1    6    4       -0.0003885858
    8    2    6    1        0.0002827880
    8    2    6    2        0.0000000004
    8    2    6    3        0.0006121287
    8    2    6    4       -0.0000000003
    8    3    6    1       -0.0000000004
    8    3    6    2        0.0004763666
    8    3    6    4       -0.0061011528
    8    4    6    1       -0.0005104262
    8    4    6    2       -0.0000000004
    8    4    6    3       -0.0105305200
    8    7    6    2       -0.0001244137
    8    7    6    4        0.0054677346
    8    8    6    5       -0.0038612283
    8    8    6    6        0.1051103204
    8    2    7    5        0.0000023789
    8    2    7    6       -0.0000042892
    8    4    7    5       -0.0018242802
    8    4    7    6        0.0032891263
    8    5    7    1       -0.0000000001
    8    5    7    2        0.0001406493
    8    5    7    4       -0.0108137801
    8    6    7    1        0.0000000002
    8    6    7    2       -0.0002535867
    8    6    7    4        0.0194969435
    8    8    7    1       -0.0000390389
    8    8    7    3        0.0005616007
    8    8    7    7        0.1011821988
    8    1    8    1        0.0002769660
    8    2    8    2        0.0002808483
    8    3    8    1        0.0004695141
    8    3    8    2        0.0000000004
    8    3    8    3        0.0059742154
    8    4    8    1        0.0000000004
    8    4    8    2       -0.0004913722
    8    4    8    4        0.0143964086
    8    5    8    5        0.0081860467
    8    6    8    5       -0.0091868036
    8    6    8    6        0.0196542304
    8    7    8    1       -0.0001271435
    8    7    8    3       -0.0042019292
    8    7    8    7        0.0072760702
    8    8    8    8        0.1043393975
    9    5    1    1       -0.0000000435
    9    6    1    1       -0.0000000241
    9    9    1    1        0.1203834789
    9    5    2    1        0.0285706826
    9    5    2    2        0.0000000435
    9    6    2    1        0.0158464366
    9    6    2    2        0.0000000241
    9    9    2    2        0.1203833320
    9    5    3    1        0.0000000001
    9    5    3    2       -0.0001611554
    9    6    3    2       -0.0000893832
    9    9    3    1       -0.0000801120
    9    9    3    3        0.1144231329
    9    5    4    1       -0.0000988505
    9    5    4    3       -0.0189530590
    9    6    4    1       -0.0000548264
    9    6    4    3       -0.0105121201
    9    9    4    2        0.0000291279
    9    9    4    4        0.1089729769
    9    1    5    1       -0.0000000004
    9    1    5    2        0.0002786282
    9    1    5    3       -0.0000000005
    9    1    5    4       -0.0003885858
    9    2    5    1        0.0002827880
    9    2    5    2        0.0000000004
    9    2    5    3        0.0006121287
    9    2    5    4       -0.0000000003
    9    3    5    1       -0.0000000004
    9    3    5    2        0.0004763666
    9    3    5    4       -0.0061011528
    9    4    5    1       -0.0005104262
    9    4    5    2       -0.0000000004
    9    4    5    3       -0.0105305200
    9    7    5    2       -0.0001244137
    9    7    5    4        0.0054677346
    9    8    5    5       -0.0038612283
    9    9    5    5        0.1051103204
    9    1    6    1       -0.0000000002
    9    1    6    2        0.0001545383
    9    1    6    3       -0.0000000003
    9    1    6    4       -0.0002155251
    9    2    6    1        0.0001568455
    9    2    6    2        0.0000000002
    9    2    6    3        0.0003395109
    9    2    6    4       -0.0000000002
    9    3    6    1       -0.0000000002
    9    3    6    2        0.0002642118
    9    3    6    4       -0.0033839420
    9    4    6    1       -0.0002831026
    9    4    6    2       -0.0000000002
    9    4    6    3       -0.0058406451
    9    7    6    2       -0.0000690048
    9    7    6    4        0.0030326230
    9    8    6    5        0.0024100480
    9    8    6    6        0.0038612283
    9    9    6    5        0.0038612283
    9    9    6    6        0.1002902243
    9    2    7    5       -0.0000042892
    9    2    7    6       -0.0000023789
    9    4    7    5        0.0032891263
    9    4    7    6        0.0018242802
    9    5    7    1        0.0000000002
    9    5    7    2       -0.0002535867
    9    5    7    4        0.0194969435
    9    6    7    1        0.0000000001
    9    6    7    2       -0.0001406493
    9    6    7    4        0.0108137801
    9    9    7    1       -0.0000390389
    9    9    7    3        0.0005616007
    9    9    7    7        0.1011821988
    9    5    8    5       -0.0091868036
    9    5    8    6        0.0134728700
    9    6    8    5       -0.0020046863
    9    6    8    6        0.0091868036
    9    9    8    8        0.0941895772
    9    1    9    1        0.0002769660
    9    2    9    2        0.0002808483
    9    3    9    1        0.0004695141
    9    3    9    2        0.0000000004
    9    3    9    3        0.0059742154
    9    4    9    1        0.0000000004
    9    4    9    2       -0.0004913722
    9    4    9    4        0.0143964086
    9    5    9    5        0.0196542304
    9    6    9    5        0.0091868036
    9    6    9    6        0.0081860467
    9    7    9    1       -0.0001271435
    9    7    9    3       -0.0042019292
    9    7    9    7        0.0072760702
    9    8    9    8        0.0050749102
    9    9    9    9        0.1043393975
   10    1    1    1        0.0000000784
   10    2    1    1       -0.0344598630
   10    3    1    1       -0.0000000669
   10    4    1    1       -0.0516896728
   10    7    1    1       -0.0000000120
   10   10    1    1        0.1255424320
   10    1    2    1       -0.0343283216
   10    1    2    2       -0.0000000260
   10    2    2    1       -0.0000000261
   10    2    2    2       -0.0344581879
   10    3    2    1        0.0439523731
   10    3    2    2        0.0000000669
   10    4    2    2       -0.0516895067
   10    7    2    1        0.0078600803
   10    7    2    2        0.0000000120
   10   10    2    2        0.1255422732
   10    1    3    1       -0.0000000058
   10    1    3    2        0.0037819029
   10    1    3    3        0.0000000008
   10    2    3    1        0.0037813563
   10    2    3    2        0.0000000058
   10    2    3    3       -0.0010633321
   10    3    3    1        0.0000000007
   10    3    3    2       -0.0008913515
   10    4    3    1        0.0005344347
   10    4    3    2        0.0000000004
   10    4    3    3       -0.0342254551
   10    7    3    2        0.0000417530
   10   10    3    1       -0.0004415791
   10   10    3    2       -0.0000000003
   10   10    3    3        0.1103326734
   10    1    4    1       -0.0036870844
   10    1    4    3        0.0007575436
   10    1    4    4        0.0000000002
   10    2    4    2       -0.0036877501
   10    2    4    3        0.0000000006
   10    2    4    4       -0.0003107841
   10    3    4    1        0.0008305962
   10    3    4    2        0.0000000006
   10    3    4    3       -0.0181868306
   10    4    4    1        0.0000000003
   10    4    4    2       -0.0003741342
   10    4    4    4       -0.0203475012
   10    7    4    1        0.0000675745
   10    7    4    3       -0.0096512330
   10   10    4    1       -0.0000000002
   10   10    4    2        0.0002585447
   10   10    4    4        0.1085175845
   10    2    5    5       -0.0000477848
   10    4    5    5       -0.0182320820
   10    5    5    1       -0.0000000003
   10    5    5    2        0.0003360833
   10    5    5    4       -0.0023235835
   10    8    5    1       -0.0001299119
   10    8    5    3       -0.0012284965
   10    9    5    1        0.0002342274
   10    9    5    2        0.0000000002
   10    9    5    3        0.0022149449
   10   10    5    5        0.0931188538
   10    2    6    6       -0.0000477848
   10    4    6    6       -0.0182320820
   10    6    6    1       -0.0000000003
   10    6    6    2        0.0003360833
   10    6    6    4       -0.0023235835
   10    8    6    1        0.0002342274
   10    8    6    2        0.0000000002
   10    8    6    3        0.0022149449
   10    9    6    1        0.0001299119
   10    9    6    3        0.0012284965
   10   10    6    6        0.0931188538
   10    1    7    2        0.0000176174
   10    1    7    3        0.0000000001
   10    1    7    4        0.0001339766
   10    2    7    1        0.0000154156
   10    2    7    3       -0.0001727363
   10    2    7    4        0.0000000001
   10    2    7    7       -0.0000464563
   10    3    7    1        0.0000000001
   10    3    7    2       -0.0001633342
   10    3    7    4        0.0102516493
   10    4    7    1        0.0000758549
   10    4    7    3       -0.0047044702
   10    4    7    7       -0.0098248022
   10    7    7    1       -0.0000000001
   10    7    7    2        0.0001334830
   10    7    7    4        0.0165424903
   10    8    7    5       -0.0010554808
   10    8    7    6        0.0019030024
   10    9    7    5        0.0019030024
   10    9    7    6        0.0010554808
   10   10    7    1       -0.0001175657
   10   10    7    3       -0.0009504330
   10   10    7    7        0.1050471347
   10    1    8    5       -0.0000145533
   10    1    8    6        0.0000262392
   10    2    8    8       -0.0000073267
   10    3    8    5       -0.0050859924
   10    3    8    6        0.0091699023
   10    4    8    8       -0.0110373150
   10    5    8    1       -0.0001364036
   10    5    8    2       -0.0000000001
   10    5    8    3       -0.0011292530
   10    5    8    7       -0.0003856831
   10    6    8    1        0.0002459318
   10    6    8    2        0.0000000002
   10    6    8    3        0.0020360116
   10    6    8    7        0.0006953758
   10    7    8    5       -0.0052919340
   10    7    8    6        0.0095412091
   10    8    8    1       -0.0000000002
   10    8    8    2        0.0002230338
   10    8    8    4        0.0006527203
   10   10    8    8        0.0919847755
   10    1    9    5        0.0000262392
   10    1    9    6        0.0000145533
   10    2    9    9       -0.0000073267
   10    3    9    5        0.0091699023
   10    3    9    6        0.0050859924
   10    4    9    9       -0.0110373150
   10    5    9    1        0.0002459318
   10    5    9    2        0.0000000002
   10    5    9    3        0.0020360116
   10    5    9    7        0.0006953758
   10    6    9    1        0.0001364036
   10    6    9    2        0.0000000001
   10    6    9    3        0.0011292530
   10    6    9    7        0.0003856831
   10    7    9    5        0.0095412091
   10    7    9    6        0.0052919340
   10    9    9    1       -0.0000000002
   10    9    9    2        0.0002230338
   10    9    9    4        0.0006527203
   10   10    9    9        0.0919847755
   10    1   10    1        0.0029164465
   10    2   10    2        0.0029164418
   10    3   10    1       -0.0006437692
   10    3   10    2       -0.0000000005
   10    3   10    3        0.0131435465
   10    4   10    1       -0.0000000002
   10    4   10    2        0.0002956927
   10    4   10    4        0.0154932879
   10    5   10    5        0.0029223298
   10    6   10    6        0.0029223298
   10    7   10    1       -0.0000058269
   10    7   10    3        0.0022064027
   10    7   10    7        0.0167513230
   10    8   10    8        0.0043354503
   10    9   10    9        0.0043354503
   10   10   10    1        0.0000000002
   10   10   10    2       -0.0002221198
   10   10   10    4       -0.0053213656
   10   10   10   10        0.1001857197
 end_two_electron_integrals
 onebody.inp
     -4.8375193220     1
     -0.0000000000     2
     -4.8374995485     3
      0.1119564547     4
      0.0000000852     5
     -1.2533493575     6
      0.0000000671     7
     -0.0881759622     8
      0.0000000000     9
     -0.9509536862    10
      0.0000000000    11
      0.0000000000    12
      0.0000000000    13
      0.0000000000    14
     -0.7823836520    15
      0.0000000000    16
     -0.0000000000    17
      0.0000000000    18
      0.0000000000    19
      0.0000000000    20
     -0.7823836520    21
     -0.0034122231    22
     -0.0000000026    23
     -0.0914815199    24
     -0.0000000000    25
     -0.0000000000    26
      0.0000000000    27
     -0.7655121615    28
     -0.0000000000    29
      0.0000000000    30
     -0.0000000000    31
      0.0000000000    32
      0.0000000000    33
     -0.0000000000    34
     -0.0000000000    35
     -0.6542379690    36
     -0.0000000000    37
      0.0000000000    38
     -0.0000000000    39
      0.0000000000    40
     -0.0000000000    41
     -0.0000000000    42
     -0.0000000000    43
     -0.0000000000    44
     -0.6542379690    45
     -0.0000000517    46
      0.0680221872    47
     -0.0000000000    48
      0.2513291530    49
      0.0000000000    50
      0.0000000000    51
      0.0000000000    52
     -0.0000000000    53
      0.0000000000    54
     -0.6472136074    55
 twobody.inp
    1    1    1    1        0.8843604887
    1    1    1    2       -0.0000011446
    1    1    1    3       -0.0552858061
    1    1    1    4       -0.0000000997
    1    1    1    7        0.0000930966
    1    1    1   10        0.0000000784
    1    1    2    1       -0.0000011446
    1    1    2    2        0.8843498755
    1    1    2    3        0.0000000426
    1    1    2    4        0.0440572502
    1    1    2    7        0.0000000014
    1    1    2   10       -0.0344598630
    1    1    3    1       -0.0552858061
    1    1    3    2        0.0000000426
    1    1    3    3        0.2277163427
    1    1    3    4        0.0000000982
    1    1    3    7        0.0171493061
    1    1    3   10       -0.0000000669
    1    1    4    1       -0.0000000997
    1    1    4    2        0.0440572502
    1    1    4    3        0.0000000982
    1    1    4    4        0.1739121558
    1    1    4    7       -0.0000000560
    1    1    4   10       -0.0516896728
    1    1    5    5        0.1394984596
    1    1    5    8        0.0000000241
    1    1    5    9       -0.0000000435
    1    1    6    6        0.1394984596
    1    1    6    8       -0.0000000435
    1    1    6    9       -0.0000000241
    1    1    7    1        0.0000930966
    1    1    7    2        0.0000000014
    1    1    7    3        0.0171493061
    1    1    7    4       -0.0000000560
    1    1    7    7        0.1399849078
    1    1    7   10       -0.0000000120
    1    1    8    5        0.0000000241
    1    1    8    6       -0.0000000435
    1    1    8    8        0.1203834789
    1    1    9    5       -0.0000000435
    1    1    9    6       -0.0000000241
    1    1    9    9        0.1203834789
    1    1   10    1        0.0000000784
    1    1   10    2       -0.0344598630
    1    1   10    3       -0.0000000669
    1    1   10    4       -0.0516896728
    1    1   10    7       -0.0000000120
    1    1   10   10        0.1255424320
    1    2    1    1       -0.0000011446
    1    2    1    2        0.7524210748
    1    2    1    3        0.0000000423
    1    2    1    4        0.0435346684
    1    2    1    7        0.0000000007
    1    2    1   10       -0.0343283216
    1    2    2    1        0.7524221793
    1    2    2    2        0.0000011447
    1    2    2    3       -0.0556440436
    1    2    2    4        0.0000000331
    1    2    2    7       -0.0008776735
    1    2    2   10       -0.0000000261
    1    2    3    1        0.0000000423
    1    2    3    2       -0.0556436562
    1    2    3    4       -0.0645276590
    1    2    3   10        0.0439523731
    1    2    4    1        0.0435346482
    1    2    4    2        0.0000000331
    1    2    4    3       -0.0645267180
    1    2    4    7        0.0367843515
    1    2    5    8       -0.0158464366
    1    2    5    9        0.0285706826
    1    2    6    8        0.0285706826
    1    2    6    9        0.0158464366
    1    2    7    1        0.0000000007
    1    2    7    2       -0.0008763242
    1    2    7    4        0.0367846558
    1    2    7   10        0.0078600803
    1    2    8    5       -0.0158463851
    1    2    8    6        0.0285705897
    1    2    9    5        0.0285705897
    1    2    9    6        0.0158463851
    1    2   10    1       -0.0343285186
    1    2   10    2       -0.0000000261
    1    2   10    3        0.0439520419
    1    2   10    7        0.0078602335
    1    3    1    1       -0.0552858061
    1    3    1    2        0.0000000423
    1    3    1    3        0.0044927436
    1    3    1    4        0.0000000072
    1    3    1    7        0.0002105555
    1    3    1   10       -0.0000000058
    1    3    2    1        0.0000000423
    1    3    2    2       -0.0552861623
    1    3    2    4       -0.0047449256
    1    3    2   10        0.0037813563
    1    3    3    1        0.0057948009
    1    3    3    3       -0.0011098842
    1    3    3    4       -0.0000000010
    1    3    3    7        0.0003525757
    1    3    3   10        0.0000000007
    1    3    4    1        0.0000000085
    1    3    4    2       -0.0055734147
    1    3    4    3       -0.0000000009
    1    3    4    4       -0.0008699722
    1    3    4    7        0.0000000003
    1    3    4   10        0.0005344347
    1    3    5    5        0.0000348894
    1    3    5    9        0.0000000001
    1    3    6    6        0.0000348894
    1    3    6    8        0.0000000001
    1    3    7    1        0.0002488393
    1    3    7    3        0.0001431762
    1    3    7    4        0.0000000003
    1    3    7    7       -0.0001143220
    1    3    8    6        0.0000000001
    1    3    8    8       -0.0000801120
    1    3    9    5        0.0000000001
    1    3    9    9       -0.0000801120
    1    3   10    1       -0.0000000064
    1    3   10    2        0.0041826173
    1    3   10    3        0.0000000007
    1    3   10    4        0.0005449728
    1    3   10   10       -0.0004415791
    1    4    1    1       -0.0000000997
    1    4    1    2        0.0435346684
    1    4    1    3        0.0000000072
    1    4    1    4        0.0047234807
    1    4    1    7       -0.0000000003
    1    4    1   10       -0.0036870844
    1    4    2    1        0.0435346482
    1    4    2    2        0.0000000327
    1    4    2    3       -0.0047473524
    1    4    2    7        0.0001606744
    1    4    3    1        0.0000000085
    1    4    3    2       -0.0055762015
    1    4    3    3       -0.0000000014
    1    4    3    4       -0.0007733562
    1    4    3    7       -0.0000000005
    1    4    3   10        0.0008305962
    1    4    4    1        0.0035828728
    1    4    4    3       -0.0003436701
    1    4    4    4       -0.0000000002
    1    4    4    7       -0.0004680478
    1    4    4   10        0.0000000003
    1    4    5    5       -0.0000000001
    1    4    5    8        0.0000548264
    1    4    5    9       -0.0000988505
    1    4    6    6       -0.0000000001
    1    4    6    8       -0.0000988505
    1    4    6    9       -0.0000548264
    1    4    7    1       -0.0000000003
    1    4    7    2        0.0001901966
    1    4    7    3       -0.0000000004
    1    4    7    4       -0.0004599900
    1    4    7   10        0.0000675745
    1    4    8    5        0.0000535036
    1    4    8    6       -0.0000964654
    1    4    9    5       -0.0000964654
    1    4    9    6       -0.0000535036
    1    4   10    1       -0.0027649081
    1    4   10    3        0.0004257050
    1    4   10    4        0.0000000003
    1    4   10    7        0.0000712174
    1    4   10   10       -0.0000000002
    1    5    1    5        0.0003626563
    1    5    1    8        0.0000000002
    1    5    1    9       -0.0000000004
    1    5    2    8       -0.0001568455
    1    5    2    9        0.0002827880
    1    5    3    5        0.0008580006
    1    5    3    8        0.0000000002
    1    5    3    9       -0.0000000004
    1    5    4    5        0.0000000004
    1    5    4    8        0.0002831026
    1    5    4    9       -0.0005104262
    1    5    5    1        0.0003318168
    1    5    5    3        0.0008044725
    1    5    5    4        0.0000000004
    1    5    5    7        0.0000001287
    1    5    5   10       -0.0000000003
    1    5    7    5        0.0000082039
    1    5    8    1        0.0000000002
    1    5    8    2       -0.0001384741
    1    5    8    3        0.0000000002
    1    5    8    4        0.0002802743
    1    5    8   10       -0.0001299119
    1    5    9    1       -0.0000000004
    1    5    9    2        0.0002496649
    1    5    9    3       -0.0000000003
    1    5    9    4       -0.0005053267
    1    5    9   10        0.0002342274
    1    5   10    5       -0.0000000003
    1    5   10    8       -0.0001315315
    1    5   10    9        0.0002371477
    1    6    1    6        0.0003626563
    1    6    1    8       -0.0000000004
    1    6    1    9       -0.0000000002
    1    6    2    8        0.0002827880
    1    6    2    9        0.0001568455
    1    6    3    6        0.0008580006
    1    6    3    8       -0.0000000004
    1    6    3    9       -0.0000000002
    1    6    4    6        0.0000000004
    1    6    4    8       -0.0005104262
    1    6    4    9       -0.0002831026
    1    6    6    1        0.0003318168
    1    6    6    3        0.0008044725
    1    6    6    4        0.0000000004
    1    6    6    7        0.0000001287
    1    6    6   10       -0.0000000003
    1    6    7    6        0.0000082039
    1    6    8    1       -0.0000000004
    1    6    8    2        0.0002496649
    1    6    8    3       -0.0000000003
    1    6    8    4       -0.0005053267
    1    6    8   10        0.0002342274
    1    6    9    1       -0.0000000002
    1    6    9    2        0.0001384741
    1    6    9    3       -0.0000000002
    1    6    9    4       -0.0002802743
    1    6    9   10        0.0001299119
    1    6   10    6       -0.0000000003
    1    6   10    8        0.0002371477
    1    6   10    9        0.0001315315
    1    7    1    1        0.0000930966
    1    7    1    2        0.0000000007
    1    7    1    3        0.0002105555
    1    7    1    4       -0.0000000003
    1    7    1    7        0.0005373824
    1    7    2    1        0.0000000007
    1    7    2    2        0.0000957091
    1    7    2    4        0.0001691229
    1    7    2   10        0.0000154156
    1    7    3    1        0.0002488393
    1    7    3    3        0.0012126346
    1    7    3    4       -0.0000000005
    1    7    3    7        0.0011447931
    1    7    3   10        0.0000000001
    1    7    4    1       -0.0000000003
    1    7    4    2        0.0001967573
    1    7    4    3       -0.0000000004
    1    7    4    4       -0.0005752329
    1    7    4    7        0.0000000007
    1    7    4   10        0.0000758549
    1    7    5    5        0.0002770912
    1    7    5    8       -0.0000000001
    1    7    5    9        0.0000000002
    1    7    6    6        0.0002770912
    1    7    6    8        0.0000000002
    1    7    6    9        0.0000000001
    1    7    7    1        0.0004698399
    1    7    7    3        0.0010629277
    1    7    7    4        0.0000000007
    1    7    7    7       -0.0000807230
    1    7    7   10       -0.0000000001
    1    7    8    5       -0.0000000001
    1    7    8    6        0.0000000002
    1    7    8    8       -0.0000390389
    1    7    9    5        0.0000000002
    1    7    9    6        0.0000000001
    1    7    9    9       -0.0000390389
    1    7   10    2       -0.0000247568
    1    7   10    4        0.0000716762
    1    7   10    7       -0.0000000001
    1    7   10   10       -0.0001175657
    1    8    1    5        0.0000000002
    1    8    1    6       -0.0000000004
    1    8    1    8        0.0002769660
    1    8    2    5       -0.0001545383
    1    8    2    6        0.0002786282
    1    8    3    5        0.0000000003
    1    8    3    6       -0.0000000005
    1    8    3    8        0.0004695141
    1    8    4    5        0.0002155251
    1    8    4    6       -0.0003885858
    1    8    4    8        0.0000000004
    1    8    5    1        0.0000000002
    1    8    5    2       -0.0001365027
    1    8    5    3        0.0000000002
    1    8    5    4        0.0002136715
    1    8    5   10       -0.0001364036
    1    8    6    1       -0.0000000004
    1    8    6    2        0.0002461106
    1    8    6    3       -0.0000000004
    1    8    6    4       -0.0003852438
    1    8    6   10        0.0002459318
    1    8    7    8       -0.0001271435
    1    8    8    1        0.0002431084
    1    8    8    3        0.0003923184
    1    8    8    4        0.0000000004
    1    8    8    7       -0.0001296230
    1    8    8   10       -0.0000000002
    1    8   10    5       -0.0001371567
    1    8   10    6        0.0002472897
    1    8   10    8       -0.0000000002
    1    9    1    5       -0.0000000004
    1    9    1    6       -0.0000000002
    1    9    1    9        0.0002769660
    1    9    2    5        0.0002786282
    1    9    2    6        0.0001545383
    1    9    3    5       -0.0000000005
    1    9    3    6       -0.0000000003
    1    9    3    9        0.0004695141
    1    9    4    5       -0.0003885858
    1    9    4    6       -0.0002155251
    1    9    4    9        0.0000000004
    1    9    5    1       -0.0000000004
    1    9    5    2        0.0002461106
    1    9    5    3       -0.0000000004
    1    9    5    4       -0.0003852438
    1    9    5   10        0.0002459318
    1    9    6    1       -0.0000000002
    1    9    6    2        0.0001365027
    1    9    6    3       -0.0000000002
    1    9    6    4       -0.0002136715
    1    9    6   10        0.0001364036
    1    9    7    9       -0.0001271435
    1    9    9    1        0.0002431084
    1    9    9    3        0.0003923184
    1    9    9    4        0.0000000004
    1    9    9    7       -0.0001296230
    1    9    9   10       -0.0000000002
    1    9   10    5        0.0002472897
    1    9   10    6        0.0001371567
    1    9   10    9       -0.0000000002
    1   10    1    1        0.0000000784
    1   10    1    2       -0.0343283216
    1   10    1    3       -0.0000000058
    1   10    1    4       -0.0036870844
    1   10    1   10        0.0029164465
    1   10    2    1       -0.0343285186
    1   10    2    2       -0.0000000260
    1   10    2    3        0.0037819029
    1   10    2    7        0.0000176174
    1   10    3    1       -0.0000000064
    1   10    3    2        0.0041832804
    1   10    3    3        0.0000000008
    1   10    3    4        0.0007575436
    1   10    3    7        0.0000000001
    1   10    3   10       -0.0006437692
    1   10    4    1       -0.0027649081
    1   10    4    3        0.0003747007
    1   10    4    4        0.0000000002
    1   10    4    7        0.0001339766
    1   10    4   10       -0.0000000002
    1   10    5    8       -0.0000145533
    1   10    5    9        0.0000262392
    1   10    6    8        0.0000262392
    1   10    6    9        0.0000145533
    1   10    7    2       -0.0000234617
    1   10    7    3        0.0000000001
    1   10    7    4        0.0001245087
    1   10    7   10       -0.0000058269
    1   10    8    5       -0.0000137239
    1   10    8    6        0.0000247438
    1   10    9    5        0.0000247438
    1   10    9    6        0.0000137239
    1   10   10    1        0.0021690311
    1   10   10    3       -0.0003479520
    1   10   10    4       -0.0000000002
    1   10   10    7       -0.0000085063
    1   10   10   10        0.0000000002
    2    1    1    1       -0.0000011446
    2    1    1    2        0.7524221793
    2    1    1    3        0.0000000423
    2    1    1    4        0.0435346482
    2    1    1    7        0.0000000007
    2    1    1   10       -0.0343285186
    2    1    2    1        0.7524210748
    2    1    2    2        0.0000011447
    2    1    2    3       -0.0556436562
    2    1    2    4        0.0000000331
    2    1    2    7       -0.0008763242
    2    1    2   10       -0.0000000261
    2    1    3    1        0.0000000423
    2    1    3    2       -0.0556440436
    2    1    3    4       -0.0645267180
    2    1    3   10        0.0439520419
    2    1    4    1        0.0435346684
    2    1    4    2        0.0000000331
    2    1    4    3       -0.0645276590
    2    1    4    7        0.0367846558
    2    1    5    8       -0.0158463851
    2    1    5    9        0.0285705897
    2    1    6    8        0.0285705897
    2    1    6    9        0.0158463851
    2    1    7    1        0.0000000007
    2    1    7    2       -0.0008776735
    2    1    7    4        0.0367843515
    2    1    7   10        0.0078602335
    2    1    8    5       -0.0158464366
    2    1    8    6        0.0285706826
    2    1    9    5        0.0285706826
    2    1    9    6        0.0158464366
    2    1   10    1       -0.0343283216
    2    1   10    2       -0.0000000261
    2    1   10    3        0.0439523731
    2    1   10    7        0.0078600803
    2    2    1    1        0.8843498755
    2    2    1    2        0.0000011447
    2    2    1    3       -0.0552861623
    2    2    1    4        0.0000000327
    2    2    1    7        0.0000957091
    2    2    1   10       -0.0000000260
    2    2    2    1        0.0000011447
    2    2    2    2        0.8843370607
    2    2    2    3       -0.0000001267
    2    2    2    4        0.0440538394
    2    2    2    7       -0.0000000013
    2    2    2   10       -0.0344581879
    2    2    3    1       -0.0552861623
    2    2    3    2       -0.0000001267
    2    2    3    3        0.2277169010
    2    2    3    4       -0.0000000982
    2    2    3    7        0.0171487403
    2    2    3   10        0.0000000669
    2    2    4    1        0.0000000327
    2    2    4    2        0.0440538394
    2    2    4    3       -0.0000000982
    2    2    4    4        0.1739112441
    2    2    4    7        0.0000000560
    2    2    4   10       -0.0516895067
    2    2    5    5        0.1394988865
    2    2    5    8       -0.0000000241
    2    2    5    9        0.0000000435
    2    2    6    6        0.1394988865
    2    2    6    8        0.0000000435
    2    2    6    9        0.0000000241
    2    2    7    1        0.0000957091
    2    2    7    2       -0.0000000013
    2    2    7    3        0.0171487403
    2    2    7    4        0.0000000560
    2    2    7    7        0.1399849677
    2    2    7   10        0.0000000120
    2    2    8    5       -0.0000000241
    2    2    8    6        0.0000000435
    2    2    8    8        0.1203833320
    2    2    9    5        0.0000000435
    2    2    9    6        0.0000000241
    2    2    9    9        0.1203833320
    2    2   10    1       -0.0000000260
    2    2   10    2       -0.0344581879
    2    2   10    3        0.0000000669
    2    2   10    4       -0.0516895067
    2    2   10    7        0.0000000120
    2    2   10   10        0.1255422732
    2    3    1    1        0.0000000426
    2    3    1    2       -0.0556440436
    2    3    1    4       -0.0047473524
    2    3    1   10        0.0037819029
    2    3    2    1       -0.0556436562
    2    3    2    2       -0.0000001267
    2    3    2    3        0.0044957796
    2    3    2    4       -0.0000000072
    2    3    2    7        0.0002047079
    2    3    2   10        0.0000000058
    2    3    3    2        0.0057933919
    2    3    3    3       -0.0000000008
    2    3    3    4        0.0012730495
    2    3    3    7        0.0000000003
    2    3    3   10       -0.0008913515
    2    3    4    1       -0.0055762015
    2    3    4    2       -0.0000000085
    2    3    4    3        0.0012469619
    2    3    4    4       -0.0000000007
    2    3    4    7       -0.0004336054
    2    3    4   10        0.0000000004
    2    3    5    8        0.0000893832
    2    3    5    9       -0.0001611554
    2    3    6    8       -0.0001611554
    2    3    6    9       -0.0000893832
    2    3    7    2        0.0002420975
    2    3    7    3        0.0000000001
    2    3    7    4       -0.0003618171
    2    3    7   10        0.0000417530
    2    3    8    5        0.0000932507
    2    3    8    6       -0.0001681284
    2    3    9    5       -0.0001681284
    2    3    9    6       -0.0000932507
    2    3   10    1        0.0041832804
    2    3   10    2        0.0000000064
    2    3   10    3       -0.0009082060
    2    3   10    4        0.0000000004
    2    3   10    7        0.0000750619
    2    3   10   10       -0.0000000003
    2    4    1    1        0.0440572502
[...]
      0.0003566485     5   2   5   2
      0.0008580006     5   3   5   1
      0.0000000007     5   3   5   2
      0.0197875871     5   3   5   3
      0.0000000004     5   4   5   1
     -0.0005283815     5   4   5   2
      0.0088676358     5   4   5   4
      0.1394984596     5   5   1   1
      0.1394988865     5   5   2   2
      0.0000348894     5   5   3   1
      0.1353612756     5   5   3   3
     -0.0000000001     5   5   4   1
      0.0001958286     5   5   4   2
      0.1139630404     5   5   4   4
      0.1212692812     5   5   5   5
      0.0003626563     6   1   6   1
      0.0003566485     6   2   6   2
      0.0008580006     6   3   6   1
      0.0000000007     6   3   6   2
      0.0197875871     6   3   6   3
      0.0000000004     6   4   6   1
     -0.0005283815     6   4   6   2
      0.0088676358     6   4   6   4
      0.0059598253     6   5   6   5
      0.1394984596     6   6   1   1
      0.1394988865     6   6   2   2
      0.0000348894     6   6   3   1
      0.1353612756     6   6   3   3
     -0.0000000001     6   6   4   1
      0.0001958286     6   6   4   2
      0.1139630404     6   6   4   4
      0.1093496305     6   6   5   5
      0.1212692812     6   6   6   6
      0.0000930966     7   1   1   1
      0.0000000007     7   1   2   1
      0.0000957091     7   1   2   2
      0.0002105555     7   1   3   1
      0.0012126346     7   1   3   3
     -0.0000000003     7   1   4   1
      0.0001691229     7   1   4   2
     -0.0000000005     7   1   4   3
     -0.0005752329     7   1   4   4
      0.0002770912     7   1   5   5
      0.0002770912     7   1   6   6
      0.0005373824     7   1   7   1
      0.0000000014     7   2   1   1
     -0.0008776735     7   2   2   1
     -0.0000000013     7   2   2   2
      0.0002047079     7   2   3   2
      0.0000000009     7   2   3   3
      0.0001606744     7   2   4   1
      0.0000000003     7   2   4   2
      0.0006666741     7   2   4   3
     -0.0000000004     7   2   4   4
      0.0000000002     7   2   5   5
      0.0000000002     7   2   6   6
      0.0005197854     7   2   7   2
      0.0171493061     7   3   1   1
      0.0171487403     7   3   2   2
      0.0003525757     7   3   3   1
      0.0000000003     7   3   3   2
      0.0186257956     7   3   3   3
     -0.0000000005     7   3   4   1
      0.0006035274     7   3   4   2
     -0.0016202804     7   3   4   4
      0.0087051592     7   3   5   5
      0.0087051592     7   3   6   6
      0.0011447931     7   3   7   1
      0.0000000009     7   3   7   2
      0.0194784159     7   3   7   3
     -0.0000000560     7   4   1   1
      0.0367843515     7   4   2   1
      0.0000000560     7   4   2   2
      0.0000000003     7   4   3   1
     -0.0004336054     7   4   3   2
     -0.0004680478     7   4   4   1
     -0.0000000004     7   4   4   2
     -0.0265334463     7   4   4   3
      0.0000000007     7   4   7   1
     -0.0009436287     7   4   7   2
      0.0371535438     7   4   7   4
      0.0000001287     7   5   5   1
      0.0006779252     7   5   5   3
      0.0043330960     7   5   7   5
      0.0000001287     7   6   6   1
      0.0006779252     7   6   6   3
      0.0043330960     7   6   7   6
      0.1399849078     7   7   1   1
      0.1399849677     7   7   2   2
     -0.0001143220     7   7   3   1
      0.1280040999     7   7   3   3
      0.0000437448     7   7   4   2
      0.1242214072     7   7   4   4
      0.1039929778     7   7   5   5
      0.1039929778     7   7   6   6
     -0.0000807230     7   7   7   1
      0.0000229325     7   7   7   3
      0.1191686684     7   7   7   7
      0.0000000002     8   1   5   1
     -0.0001545383     8   1   5   2
      0.0000000003     8   1   5   3
      0.0002155251     8   1   5   4
     -0.0000000004     8   1   6   1
      0.0002786282     8   1   6   2
     -0.0000000005     8   1   6   3
     -0.0003885858     8   1   6   4
      0.0002769660     8   1   8   1
     -0.0001568455     8   2   5   1
     -0.0000000002     8   2   5   2
     -0.0003395109     8   2   5   3
      0.0000000002     8   2   5   4
      0.0002827880     8   2   6   1
      0.0000000004     8   2   6   2
      0.0006121287     8   2   6   3
     -0.0000000003     8   2   6   4
      0.0000023789     8   2   7   5
     -0.0000042892     8   2   7   6
      0.0002808483     8   2   8   2
      0.0000000002     8   3   5   1
     -0.0002642118     8   3   5   2
      0.0033839420     8   3   5   4
     -0.0000000004     8   3   6   1
      0.0004763666     8   3   6   2
     -0.0061011528     8   3   6   4
      0.0004695141     8   3   8   1
      0.0000000004     8   3   8   2
      0.0059742154     8   3   8   3
      0.0002831026     8   4   5   1
      0.0000000002     8   4   5   2
      0.0058406451     8   4   5   3
     -0.0005104262     8   4   6   1
     -0.0000000004     8   4   6   2
     -0.0105305200     8   4   6   3
     -0.0018242802     8   4   7   5
      0.0032891263     8   4   7   6
      0.0000000004     8   4   8   1
     -0.0004913722     8   4   8   2
      0.0143964086     8   4   8   4
      0.0000000241     8   5   1   1
     -0.0158464366     8   5   2   1
     -0.0000000241     8   5   2   2
      0.0000893832     8   5   3   2
      0.0000548264     8   5   4   1
      0.0105121201     8   5   4   3
     -0.0000000001     8   5   7   1
      0.0001406493     8   5   7   2
     -0.0108137801     8   5   7   4
      0.0081860467     8   5   8   5
     -0.0000000435     8   6   1   1
      0.0285706826     8   6   2   1
      0.0000000435     8   6   2   2
      0.0000000001     8   6   3   1
     -0.0001611554     8   6   3   2
     -0.0000988505     8   6   4   1
     -0.0189530590     8   6   4   3
      0.0000000002     8   6   7   1
     -0.0002535867     8   6   7   2
      0.0194969435     8   6   7   4
     -0.0091868036     8   6   8   5
      0.0196542304     8   6   8   6
      0.0000690048     8   7   5   2
     -0.0030326230     8   7   5   4
     -0.0001244137     8   7   6   2
      0.0054677346     8   7   6   4
     -0.0001271435     8   7   8   1
     -0.0042019292     8   7   8   3
      0.0072760702     8   7   8   7
      0.1203834789     8   8   1   1
      0.1203833320     8   8   2   2
     -0.0000801120     8   8   3   1
      0.1144231329     8   8   3   3
      0.0000291279     8   8   4   2
      0.1089729769     8   8   4   4
      0.1002902243     8   8   5   5
     -0.0038612283     8   8   6   5
      0.1051103204     8   8   6   6
     -0.0000390389     8   8   7   1
      0.0005616007     8   8   7   3
      0.1011821988     8   8   7   7
      0.1043393975     8   8   8   8
     -0.0000000004     9   1   5   1
      0.0002786282     9   1   5   2
     -0.0000000005     9   1   5   3
     -0.0003885858     9   1   5   4
     -0.0000000002     9   1   6   1
      0.0001545383     9   1   6   2
     -0.0000000003     9   1   6   3
     -0.0002155251     9   1   6   4
      0.0002769660     9   1   9   1
      0.0002827880     9   2   5   1
      0.0000000004     9   2   5   2
      0.0006121287     9   2   5   3
     -0.0000000003     9   2   5   4
      0.0001568455     9   2   6   1
      0.0000000002     9   2   6   2
      0.0003395109     9   2   6   3
     -0.0000000002     9   2   6   4
     -0.0000042892     9   2   7   5
     -0.0000023789     9   2   7   6
      0.0002808483     9   2   9   2
     -0.0000000004     9   3   5   1
      0.0004763666     9   3   5   2
     -0.0061011528     9   3   5   4
     -0.0000000002     9   3   6   1
      0.0002642118     9   3   6   2
     -0.0033839420     9   3   6   4
      0.0004695141     9   3   9   1
      0.0000000004     9   3   9   2
      0.0059742154     9   3   9   3
     -0.0005104262     9   4   5   1
     -0.0000000004     9   4   5   2
     -0.0105305200     9   4   5   3
     -0.0002831026     9   4   6   1
     -0.0000000002     9   4   6   2
     -0.0058406451     9   4   6   3
      0.0032891263     9   4   7   5
      0.0018242802     9   4   7   6
      0.0000000004     9   4   9   1
     -0.0004913722     9   4   9   2
      0.0143964086     9   4   9   4
     -0.0000000435     9   5   1   1
      0.0285706826     9   5   2   1
      0.0000000435     9   5   2   2
      0.0000000001     9   5   3   1
     -0.0001611554     9   5   3   2
     -0.0000988505     9   5   4   1
     -0.0189530590     9   5   4   3
      0.0000000002     9   5   7   1
     -0.0002535867     9   5   7   2
      0.0194969435     9   5   7   4
     -0.0091868036     9   5   8   5
      0.0134728700     9   5   8   6
      0.0196542304     9   5   9   5
     -0.0000000241     9   6   1   1
      0.0158464366     9   6   2   1
      0.0000000241     9   6   2   2
     -0.0000893832     9   6   3   2
     -0.0000548264     9   6   4   1
     -0.0105121201     9   6   4   3
      0.0000000001     9   6   7   1
     -0.0001406493     9   6   7   2
      0.0108137801     9   6   7   4
     -0.0020046863     9   6   8   5
      0.0091868036     9   6   8   6
      0.0091868036     9   6   9   5
      0.0081860467     9   6   9   6
     -0.0001244137     9   7   5   2
      0.0054677346     9   7   5   4
     -0.0000690048     9   7   6   2
      0.0030326230     9   7   6   4
     -0.0001271435     9   7   9   1
     -0.0042019292     9   7   9   3
      0.0072760702     9   7   9   7
     -0.0038612283     9   8   5   5
      0.0024100480     9   8   6   5
      0.0038612283     9   8   6   6
      0.0050749102     9   8   9   8
      0.1203834789     9   9   1   1
      0.1203833320     9   9   2   2
     -0.0000801120     9   9   3   1
      0.1144231329     9   9   3   3
      0.0000291279     9   9   4   2
      0.1089729769     9   9   4   4
      0.1051103204     9   9   5   5
      0.0038612283     9   9   6   5
      0.1002902243     9   9   6   6
     -0.0000390389     9   9   7   1
      0.0005616007     9   9   7   3
      0.1011821988     9   9   7   7
      0.0941895772     9   9   8   8
      0.1043393975     9   9   9   9
      0.0000000784    10   1   1   1
     -0.0343283216    10   1   2   1
     -0.0000000260    10   1   2   2
     -0.0000000058    10   1   3   1
      0.0037819029    10   1   3   2
      0.0000000008    10   1   3   3
     -0.0036870844    10   1   4   1
      0.0007575436    10   1   4   3
      0.0000000002    10   1   4   4
      0.0000176174    10   1   7   2
      0.0000000001    10   1   7   3
      0.0001339766    10   1   7   4
     -0.0000145533    10   1   8   5
      0.0000262392    10   1   8   6
      0.0000262392    10   1   9   5
      0.0000145533    10   1   9   6
      0.0029164465    10   1  10   1
     -0.0344598630    10   2   1   1
     -0.0000000261    10   2   2   1
     -0.0344581879    10   2   2   2
      0.0037813563    10   2   3   1
      0.0000000058    10   2   3   2
     -0.0010633321    10   2   3   3
     -0.0036877501    10   2   4   2
      0.0000000006    10   2   4   3
     -0.0003107841    10   2   4   4
     -0.0000477848    10   2   5   5
     -0.0000477848    10   2   6   6
      0.0000154156    10   2   7   1
     -0.0001727363    10   2   7   3
      0.0000000001    10   2   7   4
     -0.0000464563    10   2   7   7
     -0.0000073267    10   2   8   8
     -0.0000073267    10   2   9   9
      0.0029164418    10   2  10   2
     -0.0000000669    10   3   1   1
      0.0439523731    10   3   2   1
      0.0000000669    10   3   2   2
      0.0000000007    10   3   3   1
     -0.0008913515    10   3   3   2
      0.0008305962    10   3   4   1
      0.0000000006    10   3   4   2
     -0.0181868306    10   3   4   3
      0.0000000001    10   3   7   1
     -0.0001633342    10   3   7   2
      0.0102516493    10   3   7   4
     -0.0050859924    10   3   8   5
      0.0091699023    10   3   8   6
      0.0091699023    10   3   9   5
      0.0050859924    10   3   9   6
     -0.0006437692    10   3  10   1
     -0.0000000005    10   3  10   2
      0.0131435465    10   3  10   3
     -0.0516896728    10   4   1   1
     -0.0516895067    10   4   2   2
      0.0005344347    10   4   3   1
      0.0000000004    10   4   3   2
     -0.0342254551    10   4   3   3
      0.0000000003    10   4   4   1
     -0.0003741342    10   4   4   2
     -0.0203475012    10   4   4   4
     -0.0182320820    10   4   5   5
     -0.0182320820    10   4   6   6
      0.0000758549    10   4   7   1
     -0.0047044702    10   4   7   3
     -0.0098248022    10   4   7   7
     -0.0110373150    10   4   8   8
     -0.0110373150    10   4   9   9
     -0.0000000002    10   4  10   1
      0.0002956927    10   4  10   2
      0.0154932879    10   4  10   4
     -0.0000000003    10   5   5   1
      0.0003360833    10   5   5   2
     -0.0023235835    10   5   5   4
     -0.0001364036    10   5   8   1
     -0.0000000001    10   5   8   2
     -0.0011292530    10   5   8   3
     -0.0003856831    10   5   8   7
      0.0002459318    10   5   9   1
      0.0000000002    10   5   9   2
      0.0020360116    10   5   9   3
      0.0006953758    10   5   9   7
      0.0029223298    10   5  10   5
     -0.0000000003    10   6   6   1
      0.0003360833    10   6   6   2
     -0.0023235835    10   6   6   4
      0.0002459318    10   6   8   1
      0.0000000002    10   6   8   2
      0.0020360116    10   6   8   3
      0.0006953758    10   6   8   7
      0.0001364036    10   6   9   1
      0.0000000001    10   6   9   2
      0.0011292530    10   6   9   3
      0.0003856831    10   6   9   7
      0.0029223298    10   6  10   6
     -0.0000000120    10   7   1   1
      0.0078600803    10   7   2   1
      0.0000000120    10   7   2   2
      0.0000417530    10   7   3   2
      0.0000675745    10   7   4   1
     -0.0096512330    10   7   4   3
     -0.0000000001    10   7   7   1
      0.0001334830    10   7   7   2
      0.0165424903    10   7   7   4
     -0.0052919340    10   7   8   5
      0.0095412091    10   7   8   6
      0.0095412091    10   7   9   5
      0.0052919340    10   7   9   6
     -0.0000058269    10   7  10   1
      0.0022064027    10   7  10   3
      0.0167513230    10   7  10   7
     -0.0001299119    10   8   5   1
     -0.0012284965    10   8   5   3
      0.0002342274    10   8   6   1
      0.0000000002    10   8   6   2
      0.0022149449    10   8   6   3
     -0.0010554808    10   8   7   5
      0.0019030024    10   8   7   6
     -0.0000000002    10   8   8   1
      0.0002230338    10   8   8   2
      0.0006527203    10   8   8   4
      0.0043354503    10   8  10   8
      0.0002342274    10   9   5   1
      0.0000000002    10   9   5   2
      0.0022149449    10   9   5   3
      0.0001299119    10   9   6   1
      0.0012284965    10   9   6   3
      0.0019030024    10   9   7   5
      0.0010554808    10   9   7   6
     -0.0000000002    10   9   9   1
      0.0002230338    10   9   9   2
      0.0006527203    10   9   9   4
      0.0043354503    10   9  10   9
      0.1255424320    10  10   1   1
      0.1255422732    10  10   2   2
     -0.0004415791    10  10   3   1
     -0.0000000003    10  10   3   2
      0.1103326734    10  10   3   3
     -0.0000000002    10  10   4   1
      0.0002585447    10  10   4   2
      0.1085175845    10  10   4   4
      0.0931188538    10  10   5   5
      0.0931188538    10  10   6   6
     -0.0001175657    10  10   7   1
     -0.0009504330    10  10   7   3
      0.1050471347    10  10   7   7
      0.0919847755    10  10   8   8
      0.0919847755    10  10   9   9
      0.0000000002    10  10  10   1
     -0.0002221198    10  10  10   2
     -0.0053213656    10  10  10   4
      0.1001857197    10  10  10  10
     -4.8375193220     1   1   0   0
     -4.8374995485     2   2   0   0
      0.1119564547     3   1   0   0
      0.0000000852     3   2   0   0
     -1.2533493575     3   3   0   0
      0.0000000671     4   1   0   0
     -0.0881759622     4   2   0   0
     -0.9509536862     4   4   0   0
     -0.7823836520     5   5   0   0
     -0.7823836520     6   6   0   0
     -0.0034122231     7   1   0   0
     -0.0000000026     7   2   0   0
     -0.0914815199     7   3   0   0
     -0.7655121615     7   7   0   0
     -0.6542379690     8   8   0   0
     -0.6542379690     9   9   0   0
     -0.0000000517    10   1   0   0
      0.0680221872    10   2   0   0
      0.2513291530    10   4   0   0
     -0.6472136074    10  10   0   0

 Parallel integral file used       9 records with       0 large values


 Task  times  cpu:      744.1s     wall:      748.7s


                                NWChem Input Module
                                -------------------


 Summary of allocated global arrays
-----------------------------------
  No active global arrays



                         GA Statistics for process    0
                         ------------------------------

       create   destroy   get      put      acc     scatter   gather  read&inc
calls: 2140     2140     3.38e+06 1.89e+04 1.36e+05    0        0     1.81e+05 
number of processes/call 1.00e+00 1.00e+00 1.00e+00 0.00e+00 0.00e+00
bytes total:             1.28e+10 1.01e+08 2.29e+08 0.00e+00 0.00e+00 1.45e+06
bytes remote:            0.00e+00 0.00e+00 0.00e+00 0.00e+00 0.00e+00 0.00e+00
Max memory consumed for GA by this process: 73662736 bytes

MA_summarize_allocated_blocks: starting scan ...
MA_summarize_allocated_blocks: scan completed: 0 heap blocks, 0 stack blocks
MA usage statistics:

	allocation statistics:
					      heap	     stack
					      ----	     -----
	current number of blocks	         0	         0
	maximum number of blocks	        17	        40
	current total bytes		         0	         0
	maximum total bytes		  28329720	8298725256
	maximum total K-bytes		     28330	   8298726
	maximum total M-bytes		        29	      8299


                                     CITATION
                                     --------
                Please cite the following reference when publishing
                           results obtained with NWChem:

                 M. Valiev, E.J. Bylaska, N. Govind, K. Kowalski,
              T.P. Straatsma, H.J.J. van Dam, D. Wang, J. Nieplocha,
                        E. Apra, T.L. Windus, W.A. de Jong
                 "NWChem: a comprehensive and scalable open-source
                  solution for large scale molecular simulations"
                      Comput. Phys. Commun. 181, 1477 (2010)
                           doi:10.1016/j.cpc.2010.04.018

                                      AUTHORS
                                      -------
          E. Apra, E. J. Bylaska, W. A. de Jong, N. Govind, K. Kowalski,
       T. P. Straatsma, M. Valiev, H. J. J. van Dam, D. Wang, T. L. Windus,
        J. Hammond, J. Autschbach, K. Bhaskaran-Nair, J. Brabec, K. Lopata,
    S. A. Fischer, S. Krishnamoorthy, M. Jacquelin, W. Ma, M. Klemm, O. Villa,
      Y. Chen, V. Anisimov, F. Aquino, S. Hirata, M. T. Hackler, V. Konjkov,
            D. Mejia-Rodriguez, T. Risthaus, M. Malagoli, A. Marenich,
   A. Otero-de-la-Roza, J. Mullin, P. Nichols, R. Peverati, J. Pittner, Y. Zhao,
        P.-D. Fan, A. Fonari, M. J. Williamson, R. J. Harrison, J. R. Rehr,
      M. Dupuis, D. Silverstein, D. M. A. Smith, J. Nieplocha, V. Tipparaju,
    M. Krishnan, B. E. Van Kuiken, A. Vazquez-Mayagoitia, L. Jensen, M. Swart,
      Q. Wu, T. Van Voorhis, A. A. Auer, M. Nooijen, L. D. Crosby, E. Brown,
      G. Cisneros, G. I. Fann, H. Fruchtl, J. Garza, K. Hirao, R. A. Kendall,
      J. A. Nichols, K. Tsemekhman, K. Wolinski, J. Anchell, D. E. Bernholdt,
      P. Borowski, T. Clark, D. Clerc, H. Dachsel, M. J. O. Deegan, K. Dyall,
    D. Elwood, E. Glendening, M. Gutowski, A. C. Hess, J. Jaffe, B. G. Johnson,
     J. Ju, R. Kobayashi, R. Kutteh, Z. Lin, R. Littlefield, X. Long, B. Meng,
      T. Nakajima, S. Niu, L. Pollack, M. Rosing, K. Glaesemann, G. Sandrone,
      M. Stave, H. Taylor, G. Thomas, J. H. van Lenthe, A. T. Wong, Z. Zhang.

 Total times  cpu:      744.1s     wall:      748.7s
