 argument  1 = Li2-10_ORBITALS-ccpVTZ-3_2076.nw
  NWChem w/ OpenMP: maximum threads =    1



============================== echo of input deck ==============================
title "Li2-REMOVE"
echo
start Li2-REMOVE

memory total 24 gb

geometry  units angstrom
symmetry c1
Li  0    0    0
Li  0    0    3.2076
end

basis spherical
   * library cc-pvtz
end

scf
thresh 1.0e-10
tol2e 1.0e-10
rhf
singlet
maxiter 200
end

tce
   ccsd
   maxiter 200
   thresh 1.e-6
   2eorb
   2emet 13
   tilesize 5
end

set tce:qducc T
set tce:nactv 7

task tce energy

================================================================================


                                         
                                         


              Northwest Computational Chemistry Package (NWChem) 6.8
              ------------------------------------------------------


                    Environmental Molecular Sciences Laboratory
                       Pacific Northwest National Laboratory
                                Richland, WA 99352

                              Copyright (c) 1994-2018
                       Pacific Northwest National Laboratory
                            Battelle Memorial Institute

             NWChem is an open-source computational chemistry package
                        distributed under the terms of the
                      Educational Community License (ECL) 2.0
             A copy of the license is included with this distribution
                              in the LICENSE.TXT file

                                  ACKNOWLEDGMENT
                                  --------------

            This software and its documentation were developed at the
            EMSL at Pacific Northwest National Laboratory, a multiprogram
            national laboratory, operated for the U.S. Department of Energy
            by Battelle under Contract Number DE-AC05-76RL01830. Support
            for this work was provided by the Department of Energy Office
            of Biological and Environmental Research, Office of Basic
            Energy Sciences, and the Office of Advanced Scientific Computing.


           Job information
           ---------------

    hostname        = WE35263ubuntu
    program         = /home/baum612/code/NWChem/nwchem/bin/LINUX64/nwchem
    date            = Mon Apr  8 23:20:49 2019

    compiled        = Thu_Apr_04_14:53:19_2019
    source          = /home/baum612/code/NWChem/nwchem
    nwchem branch   = Development
    nwchem revision = nwchem_on_git-845-ga8f432451
    ga revision     = 5.6.5
    use scalapack   = F
    input           = Li2-10_ORBITALS-ccpVTZ-3_2076.nw
    prefix          = Li2-REMOVE.
    data base       = ./Li2-REMOVE.db
    status          = startup
    nproc           =        1
    time left       =     -1s



           Memory information
           ------------------

    heap     =  805306368 doubles =   6144.0 Mbytes
    stack    =  805306365 doubles =   6144.0 Mbytes
    global   = 1610612736 doubles =  12288.0 Mbytes (distinct from heap & stack)
    total    = 3221225469 doubles =  24576.0 Mbytes
    verify   = yes
    hardfail = no 


           Directory information
           ---------------------

  0 permanent = .
  0 scratch   = .




                                NWChem Input Module
                                -------------------


                                    Li2-REMOVE
                                    ----------

 Scaling coordinates for geometry "geometry" by  1.889725989
 (inverse scale =  0.529177249)

 Turning off AUTOSYM since
 SYMMETRY directive was detected!


          ------
          auto-z
          ------
     1 autoz failed with cvr_scaling = 1.2 changing to 1.3
  no constraints, skipping    0.0000000000000000     
  no constraints, skipping    0.0000000000000000     


                             Geometry "geometry" -> ""
                             -------------------------

 Output coordinates in angstroms (scale by  1.889725989 to convert to a.u.)

  No.       Tag          Charge          X              Y              Z
 ---- ---------------- ---------- -------------- -------------- --------------
    1 Li                   3.0000     0.00000000     0.00000000    -1.60380000
    2 Li                   3.0000     0.00000000     0.00000000     1.60380000

      Atomic Mass 
      ----------- 

      Li                 7.016000


 Effective nuclear repulsion energy (a.u.)       1.4847846493

            Nuclear Dipole moment (a.u.) 
            ----------------------------
        X                 Y               Z
 ---------------- ---------------- ----------------
     0.0000000000     0.0000000000     0.0000000000



                                Z-matrix (autoz)
                                -------- 

 Units are Angstrom for bonds and degrees for angles

      Type          Name      I     J     K     L     M      Value
      ----------- --------  ----- ----- ----- ----- ----- ----------
    1 Stretch                  1     2                       3.20760


            XYZ format geometry
            -------------------
     2
 geometry
 Li                    0.00000000     0.00000000    -1.60380000
 Li                    0.00000000     0.00000000     1.60380000



 Summary of "ao basis" -> "" (spherical)
 ------------------------------------------------------------------------------
       Tag                 Description            Shells   Functions and Types
 ---------------- ------------------------------  ------  ---------------------
 *                          cc-pvtz                   on all atoms 


                      Basis "ao basis" -> "ao basis" (spherical)
                      -----
  Li (Lithium)
  ------------
            Exponent  Coefficients 
       -------------- ---------------------------------------------------------
  1 S  5.98800000E+03  0.000133
  1 S  8.98900000E+02  0.001025
  1 S  2.05900000E+02  0.005272
  1 S  5.92400000E+01  0.020929
  1 S  1.98700000E+01  0.066340
  1 S  7.40600000E+00  0.165775
  1 S  2.93000000E+00  0.315038
  1 S  1.18900000E+00  0.393523
  1 S  4.79800000E-01  0.190870

  2 S  5.98800000E+03 -0.000021
  2 S  8.98900000E+02 -0.000161
  2 S  2.05900000E+02 -0.000820
  2 S  5.92400000E+01 -0.003326
  2 S  1.98700000E+01 -0.010519
  2 S  7.40600000E+00 -0.028097
  2 S  2.93000000E+00 -0.055936
  2 S  1.18900000E+00 -0.099237
  2 S  4.79800000E-01 -0.112189

  3 S  7.50900000E-02  1.000000

  4 S  2.83200000E-02  1.000000

  5 P  3.26600000E+00  0.008630
  5 P  6.51100000E-01  0.047538
  5 P  1.69600000E-01  0.209772

  6 P  5.57800000E-02  1.000000

  7 P  2.05000000E-02  1.000000

  8 D  1.87400000E-01  1.000000

  9 D  8.01000000E-02  1.000000

 10 F  1.82900000E-01  1.000000



 Summary of "ao basis" -> "ao basis" (spherical)
 ------------------------------------------------------------------------------
       Tag                 Description            Shells   Functions and Types
 ---------------- ------------------------------  ------  ---------------------
 Li                         cc-pvtz                 10       30   4s3p2d1f


                                 NWChem SCF Module
                                 -----------------


                                    Li2-REMOVE



  ao basis        = "ao basis"
  functions       =    60
  atoms           =     2
  closed shells   =     3
  open shells     =     0
  charge          =   0.00
  wavefunction    = RHF 
  input vectors   = atomic
  output vectors  = ./Li2-REMOVE.movecs
  use symmetry    = F
  symmetry adapt  = F


 Summary of "ao basis" -> "ao basis" (spherical)
 ------------------------------------------------------------------------------
       Tag                 Description            Shells   Functions and Types
 ---------------- ------------------------------  ------  ---------------------
 Li                         cc-pvtz                 10       30   4s3p2d1f



 Forming initial guess at       0.1s


      Superposition of Atomic Density Guess
      -------------------------------------

 Sum of atomic energies:         -14.86535760

      Non-variational initial energy
      ------------------------------

 Total energy =     -14.783352
 1-e energy   =     -22.382038
 2-e energy   =       6.113901
 HOMO         =      -0.145857
 LUMO         =      -0.030875


 Starting SCF solution at       0.2s



 ----------------------------------------------
         Quadratically convergent ROHF

 Convergence threshold     :          1.000E-10
 Maximum no. of iterations :          200
 Final Fock-matrix accuracy:          1.000E-10
 ----------------------------------------------


 Integral file          = ./Li2-REMOVE.aoints.0
 Record size in doubles =    65536    No. of integs per rec  =    43688
 Max. records in memory =       54    Max. records in file   =  1545290
 No. of bits per label  =        8    No. of bits per value  =       64


 #quartets = 2.216D+04 #integrals = 3.711D+05 #direct =  0.0% #cached =100.0%


              iter       energy          gnorm     gmax       time
             ----- ------------------- --------- --------- --------
                 1      -14.8666878725  5.77D-02  2.51D-02      0.4
                 2      -14.8679559697  2.01D-03  1.18D-03      0.4
                 3      -14.8679584716  3.07D-06  1.98D-06      0.4
                 4      -14.8679584716  2.41D-11  2.07D-11      0.5


       Final RHF  results 
       ------------------ 

         Total SCF energy =    -14.867958471625
      One-electron energy =    -22.501143604052
      Two-electron energy =      6.148400483157
 Nuclear repulsion energy =      1.484784649270

        Time for solution =      0.3s


             Final eigenvalues
             -----------------

              1      
    1   -2.4654
    2   -2.4653
    3   -0.1715
    4    0.0001
    5    0.0278
    6    0.0278
    7    0.0359
    8    0.0534
    9    0.0534
   10    0.0631
   11    0.1114
   12    0.1205
   13    0.1205

                       ROHF Final Molecular Orbital Analysis
                       -------------------------------------

 Vector    2  Occ=2.000000D+00  E=-2.465323D+00
              MO Center=  2.7D-17, -2.8D-17, -3.2D-07, r^2= 2.7D+00
   Bfn.  Coefficient  Atom+Function         Bfn.  Coefficient  Atom+Function  
  ----- ------------  ---------------      ----- ------------  ---------------
     1      0.706068  1 Li s                 31     -0.706067  2 Li s          

 Vector    3  Occ=2.000000D+00  E=-1.714830D-01
              MO Center=  1.2D-15, -3.8D-15, -2.3D-11, r^2= 6.0D+00
   Bfn.  Coefficient  Atom+Function         Bfn.  Coefficient  Atom+Function  
  ----- ------------  ---------------      ----- ------------  ---------------
     4      0.327527  1 Li s                 34      0.327527  2 Li s          
     3      0.268995  1 Li s                 33      0.268995  2 Li s          
     2      0.169305  1 Li s                 32      0.169305  2 Li s          

 Vector    4  Occ=0.000000D+00  E= 1.295018D-04
              MO Center=  1.7D-16,  2.7D-15,  8.5D-11, r^2= 1.9D+01
   Bfn.  Coefficient  Atom+Function         Bfn.  Coefficient  Atom+Function  
  ----- ------------  ---------------      ----- ------------  ---------------
    13      0.609729  1 Li pz                43      0.609729  2 Li pz         
     4      0.209924  1 Li s                 34     -0.209924  2 Li s          
     3     -0.194049  1 Li s                 33      0.194049  2 Li s          

 Vector    5  Occ=0.000000D+00  E= 2.783109D-02
              MO Center= -2.4D-15,  8.5D-15,  7.4D-11, r^2= 1.8D+01
   Bfn.  Coefficient  Atom+Function         Bfn.  Coefficient  Atom+Function  
  ----- ------------  ---------------      ----- ------------  ---------------
    12      0.508005  1 Li py                42      0.508005  2 Li py         

 Vector    6  Occ=0.000000D+00  E= 2.783109D-02
              MO Center= -8.8D-15, -1.8D-15,  7.4D-11, r^2= 1.8D+01
   Bfn.  Coefficient  Atom+Function         Bfn.  Coefficient  Atom+Function  
  ----- ------------  ---------------      ----- ------------  ---------------
    11      0.508005  1 Li px                41      0.508005  2 Li px         

 Vector    7  Occ=0.000000D+00  E= 3.594640D-02
              MO Center=  9.7D-15,  6.9D-16, -7.6D-10, r^2= 2.5D+01
   Bfn.  Coefficient  Atom+Function         Bfn.  Coefficient  Atom+Function  
  ----- ------------  ---------------      ----- ------------  ---------------
    13      0.854446  1 Li pz                43     -0.854446  2 Li pz         
     4     -0.572273  1 Li s                 34     -0.572273  2 Li s          
     3      0.172395  1 Li s                 33      0.172395  2 Li s          

 Vector    8  Occ=0.000000D+00  E= 5.338049D-02
              MO Center= -6.2D-15, -9.4D-15, -6.6D-11, r^2= 2.7D+01
   Bfn.  Coefficient  Atom+Function         Bfn.  Coefficient  Atom+Function  
  ----- ------------  ---------------      ----- ------------  ---------------
    12      1.150351  1 Li py                42     -1.150351  2 Li py         
    11      0.750248  1 Li px                41     -0.750248  2 Li px         

 Vector    9  Occ=0.000000D+00  E= 5.338049D-02
              MO Center=  4.9D-15, -2.9D-15, -6.6D-11, r^2= 2.7D+01
   Bfn.  Coefficient  Atom+Function         Bfn.  Coefficient  Atom+Function  
  ----- ------------  ---------------      ----- ------------  ---------------
    11      1.150351  1 Li px                41     -1.150351  2 Li px         
    12     -0.750248  1 Li py                42      0.750248  2 Li py         

 Vector   10  Occ=0.000000D+00  E= 6.308972D-02
              MO Center=  9.1D-16,  1.4D-14,  6.2D-10, r^2= 3.3D+01
   Bfn.  Coefficient  Atom+Function         Bfn.  Coefficient  Atom+Function  
  ----- ------------  ---------------      ----- ------------  ---------------
     4      4.173682  1 Li s                 34     -4.173682  2 Li s          
    13      2.054580  1 Li pz                43      2.054580  2 Li pz         
    10      0.323349  1 Li pz                40      0.323349  2 Li pz         
    21      0.256032  1 Li d  0              51     -0.256032  2 Li d  0       
     3     -0.162036  1 Li s                 33      0.162036  2 Li s          

 Vector   11  Occ=0.000000D+00  E= 1.113586D-01
              MO Center= -4.9D-15, -2.6D-16, -5.2D-10, r^2= 1.9D+01
   Bfn.  Coefficient  Atom+Function         Bfn.  Coefficient  Atom+Function  
  ----- ------------  ---------------      ----- ------------  ---------------
    13      1.082902  1 Li pz                43     -1.082902  2 Li pz         
    10     -0.761517  1 Li pz                40      0.761517  2 Li pz         
     3     -0.392067  1 Li s                 33     -0.392067  2 Li s          
     4      0.155958  1 Li s                 34      0.155958  2 Li s          

 Vector   12  Occ=0.000000D+00  E= 1.205310D-01
              MO Center=  4.1D-16, -1.6D-16,  1.3D-10, r^2= 1.6D+01
   Bfn.  Coefficient  Atom+Function         Bfn.  Coefficient  Atom+Function  
  ----- ------------  ---------------      ----- ------------  ---------------
     9      0.901314  1 Li py                39      0.901314  2 Li py         
    12     -0.676478  1 Li py                42     -0.676478  2 Li py         

 Vector   13  Occ=0.000000D+00  E= 1.205310D-01
              MO Center=  3.1D-15,  3.5D-16,  1.3D-10, r^2= 1.6D+01
   Bfn.  Coefficient  Atom+Function         Bfn.  Coefficient  Atom+Function  
  ----- ------------  ---------------      ----- ------------  ---------------
     8      0.901314  1 Li px                38      0.901314  2 Li px         
    11     -0.676478  1 Li px                41     -0.676478  2 Li px         

 Vector   14  Occ=0.000000D+00  E= 1.505943D-01
              MO Center=  1.8D-15,  3.9D-16,  1.2D-08, r^2= 1.3D+01
   Bfn.  Coefficient  Atom+Function         Bfn.  Coefficient  Atom+Function  
  ----- ------------  ---------------      ----- ------------  ---------------
     3      1.357634  1 Li s                 33      1.357634  2 Li s          
     4     -1.049634  1 Li s                 34     -1.049634  2 Li s          
    10     -0.334692  1 Li pz                40      0.334692  2 Li pz         
     2      0.327734  1 Li s                 32      0.327734  2 Li s          
    13      0.158466  1 Li pz                43     -0.158466  2 Li pz         

 Vector   15  Occ=0.000000D+00  E= 1.536408D-01
              MO Center=  1.3D-15, -2.0D-15, -1.2D-10, r^2= 1.5D+01
   Bfn.  Coefficient  Atom+Function         Bfn.  Coefficient  Atom+Function  
  ----- ------------  ---------------      ----- ------------  ---------------
    12     -1.024780  1 Li py                42      1.024780  2 Li py         
     9      0.949785  1 Li py                39     -0.949785  2 Li py         
    11      0.482076  1 Li px                41     -0.482076  2 Li px         
     8     -0.446797  1 Li px                38      0.446797  2 Li px         

 Vector   16  Occ=0.000000D+00  E= 1.536408D-01
              MO Center=  4.0D-16, -1.6D-15, -1.2D-10, r^2= 1.5D+01
   Bfn.  Coefficient  Atom+Function         Bfn.  Coefficient  Atom+Function  
  ----- ------------  ---------------      ----- ------------  ---------------
    11     -1.024780  1 Li px                41      1.024780  2 Li px         
     8      0.949785  1 Li px                38     -0.949785  2 Li px         
    12     -0.482076  1 Li py                42      0.482076  2 Li py         
     9      0.446797  1 Li py                39     -0.446797  2 Li py         

 Vector   17  Occ=0.000000D+00  E= 1.604671D-01
              MO Center=  1.7D-15, -1.4D-15, -1.2D-08, r^2= 1.8D+01
   Bfn.  Coefficient  Atom+Function         Bfn.  Coefficient  Atom+Function  
  ----- ------------  ---------------      ----- ------------  ---------------
     4      6.618718  1 Li s                 34     -6.618718  2 Li s          
    10      3.165441  1 Li pz                40      3.165441  2 Li pz         
    13      1.292513  1 Li pz                43      1.292513  2 Li pz         
    21      0.771838  1 Li d  0              51     -0.771838  2 Li d  0       
     3     -0.639949  1 Li s                 33      0.639949  2 Li s          

 Vector   18  Occ=0.000000D+00  E= 2.178894D-01
              MO Center=  6.5D-16,  2.0D-15,  7.0D-11, r^2= 9.0D+00
   Bfn.  Coefficient  Atom+Function         Bfn.  Coefficient  Atom+Function  
  ----- ------------  ---------------      ----- ------------  ---------------
    23      0.619533  1 Li d  2              53      0.619533  2 Li d  2       
    19     -0.396913  1 Li d -2              49     -0.396913  2 Li d -2       

 Vector   19  Occ=0.000000D+00  E= 2.178894D-01
              MO Center= -1.2D-15,  9.6D-17,  7.0D-11, r^2= 9.0D+00
   Bfn.  Coefficient  Atom+Function         Bfn.  Coefficient  Atom+Function  
  ----- ------------  ---------------      ----- ------------  ---------------
    19      0.619533  1 Li d -2              49      0.619533  2 Li d -2       
    23      0.396913  1 Li d  2              53      0.396913  2 Li d  2       

 Vector   20  Occ=0.000000D+00  E= 2.225421D-01
              MO Center= -2.7D-16, -2.0D-16,  7.6D-10, r^2= 1.5D+01
   Bfn.  Coefficient  Atom+Function         Bfn.  Coefficient  Atom+Function  
  ----- ------------  ---------------      ----- ------------  ---------------
     4      4.751006  1 Li s                 34     -4.751006  2 Li s          
    13      1.479541  1 Li pz                43      1.479541  2 Li pz         
     3     -1.064178  1 Li s                 33      1.064178  2 Li s          
    21      0.977190  1 Li d  0              51     -0.977190  2 Li d  0       
    10      0.863625  1 Li pz                40      0.863625  2 Li pz         

 Vector   21  Occ=0.000000D+00  E= 2.396789D-01
              MO Center=  8.3D-16,  6.2D-16,  1.1D-11, r^2= 1.0D+01
   Bfn.  Coefficient  Atom+Function         Bfn.  Coefficient  Atom+Function  
  ----- ------------  ---------------      ----- ------------  ---------------
    22      0.699208  1 Li d  1              52     -0.699208  2 Li d  1       
     8      0.281174  1 Li px                38      0.281174  2 Li px         
    20     -0.190487  1 Li d -1              50      0.190487  2 Li d -1       

 Vector   22  Occ=0.000000D+00  E= 2.396789D-01
              MO Center= -3.8D-16,  5.5D-16,  1.1D-11, r^2= 1.0D+01
   Bfn.  Coefficient  Atom+Function         Bfn.  Coefficient  Atom+Function  
  ----- ------------  ---------------      ----- ------------  ---------------
    20      0.699208  1 Li d -1              50     -0.699208  2 Li d -1       
     9     -0.281174  1 Li py                39     -0.281174  2 Li py         
    22      0.190487  1 Li d  1              52     -0.190487  2 Li d  1       

 Vector   23  Occ=0.000000D+00  E= 2.673074D-01
              MO Center= -3.0D-15,  2.6D-15, -6.8D-11, r^2= 1.1D+01
   Bfn.  Coefficient  Atom+Function         Bfn.  Coefficient  Atom+Function  
  ----- ------------  ---------------      ----- ------------  ---------------
    19      0.699614  1 Li d -2              49     -0.699614  2 Li d -2       
    23      0.625166  1 Li d  2              53     -0.625166  2 Li d  2       

 Vector   24  Occ=0.000000D+00  E= 2.673074D-01
              MO Center= -1.9D-15,  3.5D-15, -6.8D-11, r^2= 1.1D+01
   Bfn.  Coefficient  Atom+Function         Bfn.  Coefficient  Atom+Function  
  ----- ------------  ---------------      ----- ------------  ---------------
    23      0.699614  1 Li d  2              53     -0.699614  2 Li d  2       
    19     -0.625166  1 Li d -2              49      0.625166  2 Li d -2       

 Vector   25  Occ=0.000000D+00  E= 3.052319D-01
              MO Center=  5.7D-16, -1.4D-17, -6.3D-10, r^2= 1.3D+01
   Bfn.  Coefficient  Atom+Function         Bfn.  Coefficient  Atom+Function  
  ----- ------------  ---------------      ----- ------------  ---------------
    21      1.039096  1 Li d  0              51      1.039096  2 Li d  0       
     3     -0.928585  1 Li s                 33     -0.928585  2 Li s          
    13      0.609207  1 Li pz                43     -0.609207  2 Li pz         
     4      0.414593  1 Li s                 34      0.414593  2 Li s          
    10     -0.327152  1 Li pz                40      0.327152  2 Li pz         

 Vector   26  Occ=0.000000D+00  E= 3.412209D-01
              MO Center=  2.2D-15,  8.1D-16, -2.5D-11, r^2= 1.1D+01
   Bfn.  Coefficient  Atom+Function         Bfn.  Coefficient  Atom+Function  
  ----- ------------  ---------------      ----- ------------  ---------------
    22      1.530169  1 Li d  1              52      1.530169  2 Li d  1       
     8     -0.779074  1 Li px                38      0.779074  2 Li px         
    17     -0.243665  1 Li d  1              47     -0.243665  2 Li d  1       
    11     -0.216937  1 Li px                41      0.216937  2 Li px         
    20     -0.161164  1 Li d -1              50     -0.161164  2 Li d -1       

 Vector   27  Occ=0.000000D+00  E= 3.412209D-01
              MO Center= -9.5D-16, -1.9D-15, -2.5D-11, r^2= 1.1D+01
   Bfn.  Coefficient  Atom+Function         Bfn.  Coefficient  Atom+Function  
  ----- ------------  ---------------      ----- ------------  ---------------
    20      1.530169  1 Li d -1              50      1.530169  2 Li d -1       
     9      0.779074  1 Li py                39     -0.779074  2 Li py         
    15     -0.243665  1 Li d -1              45     -0.243665  2 Li d -1       
    12      0.216937  1 Li py                42     -0.216937  2 Li py         
    22      0.161164  1 Li d  1              52      0.161164  2 Li d  1       

 Vector   28  Occ=0.000000D+00  E= 4.112922D-01
              MO Center= -1.6D-15, -9.4D-16,  3.4D-10, r^2= 1.3D+01
   Bfn.  Coefficient  Atom+Function         Bfn.  Coefficient  Atom+Function  
  ----- ------------  ---------------      ----- ------------  ---------------
     4      5.799288  1 Li s                 34     -5.799288  2 Li s          
    10      5.663197  1 Li pz                40      5.663197  2 Li pz         
    21      2.281200  1 Li d  0              51     -2.281200  2 Li d  0       
     3      2.163776  1 Li s                 33     -2.163776  2 Li s          
    13      0.711728  1 Li pz                43      0.711728  2 Li pz         

 Vector   29  Occ=0.000000D+00  E= 4.655578D-01
              MO Center= -9.8D-16, -1.6D-16, -1.9D-10, r^2= 7.3D+00
   Bfn.  Coefficient  Atom+Function         Bfn.  Coefficient  Atom+Function  
  ----- ------------  ---------------      ----- ------------  ---------------
     4      2.364208  1 Li s                 34     -2.364208  2 Li s          
    10      1.213062  1 Li pz                40      1.213062  2 Li pz         
    21      1.174405  1 Li d  0              51     -1.174405  2 Li d  0       
     7      0.753844  1 Li pz                37      0.753844  2 Li pz         
     3      0.737098  1 Li s                 33     -0.737098  2 Li s          

 Vector   30  Occ=0.000000D+00  E= 4.698237D-01
              MO Center= -6.4D-16,  4.6D-16,  4.2D-10, r^2= 7.6D+00
   Bfn.  Coefficient  Atom+Function         Bfn.  Coefficient  Atom+Function  
  ----- ------------  ---------------      ----- ------------  ---------------
     5      0.980239  1 Li px                35      0.980239  2 Li px         
     8     -0.945812  1 Li px                38     -0.945812  2 Li px         
    11      0.366050  1 Li px                41      0.366050  2 Li px         

 Vector   31  Occ=0.000000D+00  E= 4.698237D-01
              MO Center= -1.1D-15, -1.9D-15,  4.2D-10, r^2= 7.6D+00
   Bfn.  Coefficient  Atom+Function         Bfn.  Coefficient  Atom+Function  
  ----- ------------  ---------------      ----- ------------  ---------------
     6      0.980239  1 Li py                36      0.980239  2 Li py         
     9     -0.945812  1 Li py                39     -0.945812  2 Li py         
    12      0.366050  1 Li py                42      0.366050  2 Li py         

 Vector   32  Occ=0.000000D+00  E= 4.861354D-01
              MO Center=  2.1D-15, -5.8D-16, -4.2D-10, r^2= 8.1D+00
   Bfn.  Coefficient  Atom+Function         Bfn.  Coefficient  Atom+Function  
  ----- ------------  ---------------      ----- ------------  ---------------
     9      1.305758  1 Li py                39     -1.305758  2 Li py         
     6     -0.911039  1 Li py                36      0.911039  2 Li py         
     8     -0.637337  1 Li px                38      0.637337  2 Li px         
    12     -0.600088  1 Li py                42      0.600088  2 Li py         
     5      0.444676  1 Li px                35     -0.444676  2 Li px         

 Vector   33  Occ=0.000000D+00  E= 4.861354D-01
              MO Center=  1.2D-15, -1.0D-16, -4.2D-10, r^2= 8.1D+00
   Bfn.  Coefficient  Atom+Function         Bfn.  Coefficient  Atom+Function  
  ----- ------------  ---------------      ----- ------------  ---------------
     8      1.305758  1 Li px                38     -1.305758  2 Li px         
     5     -0.911039  1 Li px                35      0.911039  2 Li px         
     9      0.637337  1 Li py                39     -0.637337  2 Li py         
    11     -0.600088  1 Li px                41      0.600088  2 Li px         
     6     -0.444676  1 Li py                36      0.444676  2 Li py         

 Vector   34  Occ=0.000000D+00  E= 5.158764D-01
              MO Center= -9.6D-16, -1.5D-16, -1.4D-10, r^2= 7.4D+00
   Bfn.  Coefficient  Atom+Function         Bfn.  Coefficient  Atom+Function  
  ----- ------------  ---------------      ----- ------------  ---------------
    10     -0.989783  1 Li pz                40      0.989783  2 Li pz         
     7      0.978443  1 Li pz                37     -0.978443  2 Li pz         
     3      0.568754  1 Li s                 33      0.568754  2 Li s          
    21     -0.451834  1 Li d  0              51     -0.451834  2 Li d  0       
     4     -0.356868  1 Li s                 34     -0.356868  2 Li s          


 center of mass
 --------------
 x =   0.00000000 y =   0.00000000 z =   0.00000000

 moments of inertia (a.u.)
 ------------------
         128.889537664938           0.000000000000           0.000000000000
           0.000000000000         128.889537664938           0.000000000000
           0.000000000000           0.000000000000           0.000000000000

  Mulliken analysis of the total density
  --------------------------------------

    Atom       Charge   Shell Charges
 -----------   ------   -------------------------------------------------------
    1 Li   3     3.00   2.00 -0.02  0.39  0.55  0.02  0.04  0.01  0.00  0.00  0.00
    2 Li   3     3.00   2.00 -0.02  0.39  0.55  0.02  0.04  0.01  0.00  0.00  0.00

       Multipole analysis of the density wrt the origin
       ------------------------------------------------

     L   x y z        total         open         nuclear
     -   - - -        -----         ----         -------
     0   0 0 0     -0.000000      0.000000      6.000000

     1   1 0 0     -0.000000      0.000000      0.000000
     1   0 1 0      0.000000      0.000000      0.000000
     1   0 0 1      0.000000      0.000000      0.000000

     2   2 0 0    -13.003773      0.000000      0.000000
     2   1 1 0     -0.000000      0.000000      0.000000
     2   1 0 1      0.000000      0.000000      0.000000
     2   0 2 0    -13.003773      0.000000      0.000000
     2   0 1 1     -0.000000      0.000000      0.000000
     2   0 0 2     -0.186458      0.000000     55.112402


 Parallel integral file used       9 records with       0 large values

                   NWChem Extensible Many-Electron Theory Module
                   ---------------------------------------------

              ======================================================
                   This portion of the program was automatically
                  generated by a Tensor Contraction Engine (TCE).
                  The development of this portion of the program
                 and TCE was supported by US Department of Energy,
                Office of Science, Office of Basic Energy Science.
                      TCE is a product of Battelle and PNNL.
              Please cite: S.Hirata, J.Phys.Chem.A 107, 9887 (2003).
              ======================================================

                                    Li2-REMOVE


            General Information
            -------------------
      Number of processors :     1
         Wavefunction type : Restricted Hartree-Fock
          No. of electrons :     6
           Alpha electrons :     3
            Beta electrons :     3
           No. of orbitals :   120
            Alpha orbitals :    60
             Beta orbitals :    60
        Alpha frozen cores :     0
         Beta frozen cores :     0
     Alpha frozen virtuals :     0
      Beta frozen virtuals :     0
         Spin multiplicity : singlet 
    Number of AO functions :    60
       Number of AO shells :    20
        Use of symmetry is : off
      Symmetry adaption is : off
         Schwarz screening : 0.10D-09

          Correlation Information
          -----------------------
          Calculation type : Coupled-cluster singles & doubles                           
   Perturbative correction : none                                                        
            Max iterations :      200
        Residual threshold : 0.10D-05
     T(0) DIIS level shift : 0.00D+00
     L(0) DIIS level shift : 0.00D+00
     T(1) DIIS level shift : 0.00D+00
     L(1) DIIS level shift : 0.00D+00
     T(R) DIIS level shift : 0.00D+00
     T(I) DIIS level shift : 0.00D+00
   CC-T/L Amplitude update :  5-th order DIIS
                I/O scheme : Global Array Library
        L-threshold :  0.10D-05
        EOM-threshold :  0.10D-05
 no EOMCCSD initial starts read in
 TCE RESTART OPTIONS
 READ_INT:   F
 WRITE_INT:  F
 READ_TA:    F
 WRITE_TA:   F
 READ_XA:    F
 WRITE_XA:   F
 READ_IN3:   F
 WRITE_IN3:  F
 SLICE:      F
 D4D5:       F
 quantumc:   F
 qrotation:  F
 qducc:      T
 nacto:                         0
 nrotv:                         0
 nrot:                          0

            Memory Information
            ------------------
          Available GA space size is    1610609136 doubles
          Available MA space size is    1610610012 doubles

 Maximum block size supplied by input
 Maximum block size         5 doubles

 tile_dim =      5

 Block   Spin    Irrep     Size     Offset   Alpha
 -------------------------------------------------
   1    alpha     a      3 doubles       0       1
   2    beta      a      3 doubles       3       1
   3    alpha     a      4 doubles       6       3
   4    alpha     a      5 doubles      10       4
   5    alpha     a      5 doubles      15       5
   6    alpha     a      5 doubles      20       6
   7    alpha     a      4 doubles      25       7
   8    alpha     a      5 doubles      29       8
   9    alpha     a      5 doubles      34       9
  10    alpha     a      5 doubles      39      10
  11    alpha     a      4 doubles      44      11
  12    alpha     a      5 doubles      48      12
  13    alpha     a      5 doubles      53      13
  14    alpha     a      5 doubles      58      14
  15    beta      a      4 doubles      63       3
  16    beta      a      5 doubles      67       4
  17    beta      a      5 doubles      72       5
  18    beta      a      5 doubles      77       6
  19    beta      a      4 doubles      82       7
  20    beta      a      5 doubles      86       8
  21    beta      a      5 doubles      91       9
  22    beta      a      5 doubles      96      10
  23    beta      a      4 doubles     101      11
  24    beta      a      5 doubles     105      12
  25    beta      a      5 doubles     110      13
  26    beta      a      5 doubles     115      14

 Global array virtual files algorithm will be used

 Parallel file system coherency ......... OK

 Integral file          = ./Li2-REMOVE.aoints.0
 Record size in doubles =    65536    No. of integs per rec  =    43688
 Max. records in memory =       54    Max. records in file   =  1545290
 No. of bits per label  =        8    No. of bits per value  =       64


 #quartets = 2.216D+04 #integrals = 3.711D+05 #direct =  0.0% #cached =100.0%


 Fock matrix recomputed
 1-e file size   =             3600
 1-e file name   = ./Li2-REMOVE.f1
 Cpu & wall time / sec            0.2            0.2
 4-electron integrals stored in orbital form

 v2    file size   =          1905240
 4-index algorithm nr.  13 is used
 imaxsize =       30
 imaxsize ichop =        0
 Cpu & wall time / sec            4.6            4.7
 T1-number-of-tasks                   12

 t1 file size   =              171
 t1 file name   = ./Li2-REMOVE.t1
 t1 file handle =       -998
 T2-number-of-boxes                  222

 t2 file size   =            45090
 t2 file name   = ./Li2-REMOVE.t2
 t2 file handle =       -996

 CCSD iterations
 -----------------------------------------------------------------
 Iter          Residuum       Correlation     Cpu    Wall    V2*C2
 -----------------------------------------------------------------
    1   0.0881609325456  -0.0433392021839     1.8     1.9     0.5
    2   0.0245703672262  -0.0512591883494     1.8     1.9     0.5
    3   0.0121836510004  -0.0542978787915     1.8     1.9     0.5
    4   0.0069927222468  -0.0555562160174     1.8     2.0     0.5
    5   0.0041936796634  -0.0562183843286     1.9     2.0     0.6
 MICROCYCLE DIIS UPDATE:                    5                    5
    6   0.0006176215644  -0.0570468575690     1.8     2.0     0.6
    7   0.0002892003506  -0.0570550639360     1.8     1.9     0.5
    8   0.0001680720658  -0.0570577703334     1.8     2.0     0.5
    9   0.0001044152547  -0.0570597532288     1.8     2.0     0.5
   10   0.0000660474619  -0.0570615907625     1.8     2.0     0.5
 MICROCYCLE DIIS UPDATE:                   10                    5
   11   0.0000124220039  -0.0570649664510     1.8     2.0     0.6
   12   0.0000065364101  -0.0570657025669     1.8     1.9     0.5
   13   0.0000040091664  -0.0570661626268     1.8     2.0     0.6
   14   0.0000025726663  -0.0570663884266     1.9     2.0     0.5
   15   0.0000017018434  -0.0570665093974     1.8     2.0     0.5
 MICROCYCLE DIIS UPDATE:                   15                    5
   16   0.0000003468833  -0.0570666775454     1.9     2.0     0.6
 -----------------------------------------------------------------
 Iterations converged
 CCSD correlation energy / hartree =        -0.057066677545415
 CCSD total energy / hartree       =       -14.925025149170487

 Singles contributions

 Doubles contributions
     4a   (alpha)     4a   (beta ) ---     3a   (alpha)     3a   (beta )       -0.1121106977
 Ground state specification:
 exp(T)|Ref>~(1+T)|Ref>
 ------- a(p)+/a(q) strings ----------

 singles norm

 doubles norm

 Reference string
  0.99377422259324300      :(1a)+ (2a)+ (3a)+ (1b)+ (2b)+ (3b)+ |0>

 Singles strings

 Doubles strings
 -0.11141272148724944      :(4a)+ (4b)+ (3b)  (3a)  (1a)+ (2a)+ (3a)+ (1b)+ (2b)+ (3b)+ |0>
 -------------------------------------
 enrep_tce =    1.4847846492696357     
  EHF(total)         =       -14.86795847
  Shift (HFtot-HFA)  =         0.00000000
 ALL OCCUPIED ORBITALS ARE ACTIVE IN DUCC --> NO SHIFT
 Number of active orbitals                   10
 Number of active alpha electrons                    3
 Number of active beta electrons                    3
  nos                     6
  nvs                   114
 noas                     3
 nobs                     3
 nvas                    57
 nvbs                    57
 nactv                     7
 From DUCC CCSD corr. ene.  -5.7066677545423702E-002
 From DUCC CCSD corr. ene.-e-part   6.8619754656807350E-002
 begin_one_electron_integrals
    1    1        -4.9361869991
    1    3         0.1169522838
    1    4         0.0000000076
    1    7         0.0039144612
    1   10        -0.0000000071
    2    2        -4.9362241788
    2    3         0.0000000116
    2    4        -0.0769759584
    2    7         0.0000000004
    2   10         0.0714461395
    3    1         0.1169522838
    3    2         0.0000000116
    3    3        -1.3869595504
    3    7        -0.1279684312
    4    1         0.0000000076
    4    2        -0.0769759584
    4    4        -0.9159909333
    4   10         0.2775448441
    5    5        -0.8280127058
    6    6        -0.8280127058
    7    1         0.0039144612
    7    2         0.0000000004
    7    3        -0.1279684312
    7    7        -0.7629225354
    8    8        -0.6411335493
    9    9        -0.6411335493
   10    1        -0.0000000071
   10    2         0.0714461395
   10    4         0.2775448441
   10   10        -0.6895859493
 end_one_electron_integrals
 begin_two_electron_integrals
    1    1    1    1        0.9005791983
    2    1    1    1       -0.0000001459
    2    2    1    1        0.9006122834
    2    1    2    1        0.7357393706
    2    2    2    1        0.0000001459
    2    2    2    2        0.9006279874
    3    1    1    1       -0.0582219126
    3    2    1    1        0.0000000060
    3    3    1    1        0.2522559162
    3    1    2    1        0.0000000059
    3    1    2    2       -0.0582248525
    3    2    2    1       -0.0592078272
    3    2    2    2       -0.0000000175
    3    3    2    2        0.2522613814
    3    1    3    1        0.0050551931
    3    2    3    2        0.0050603038
    3    3    3    1       -0.0010560157
    3    3    3    2       -0.0000000001
    3    3    3    3        0.2145754521
    4    1    1    1       -0.0000000111
    4    2    1    1        0.0378039115
    4    3    1    1        0.0000000099
    4    4    1    1        0.1658035600
    4    1    2    1        0.0368678319
    4    1    2    2        0.0000000036
    4    2    2    1        0.0000000037
    4    2    2    2        0.0378009575
    4    3    2    1       -0.0496772105
    4    3    2    2       -0.0000000099
    4    4    2    2        0.1658007624
    4    1    3    1        0.0000000009
    4    1    3    2       -0.0043145480
    4    1    3    3       -0.0000000002
    4    2    3    1       -0.0043042410
    4    2    3    2       -0.0000000009
    4    2    3    3        0.0021920377
    4    3    3    1       -0.0000000001
    4    3    3    2        0.0013918188
    4    4    3    1       -0.0008638938
    4    4    3    3        0.1409291420
    4    1    4    1        0.0035056477
    4    2    4    2        0.0035158836
    4    3    4    1       -0.0004003294
    4    3    4    3        0.0225413114
    4    4    4    2        0.0000060240
    4    4    4    4        0.1343720447
    5    5    1    1        0.1473910958
    5    5    2    2        0.1473928498
    5    5    3    1        0.0001328287
    5    5    3    3        0.1430178866
    5    5    4    2        0.0002308209
    5    5    4    4        0.1137499291
    5    1    5    1        0.0003881056
    5    2    5    2        0.0003744749
    5    3    5    1        0.0009892870
    5    3    5    3        0.0230344941
    5    4    5    2       -0.0004739408
    5    4    5    4        0.0080309629
    5    5    5    5        0.1266342751
    6    6    1    1        0.1473910958
    6    6    2    2        0.1473928498
    6    6    3    1        0.0001328287
    6    6    3    3        0.1430178866
    6    6    4    2        0.0002308209
    6    6    4    4        0.1137499291
    6    6    5    5        0.1136389963
    6    1    6    1        0.0003881056
    6    2    6    2        0.0003744749
    6    3    6    1        0.0009892870
    6    3    6    3        0.0230344941
    6    4    6    2       -0.0004739408
    6    4    6    4        0.0080309629
    6    5    6    5        0.0064976394
    6    6    6    6        0.1266342751
    7    1    1    1       -0.0041771511
    7    2    1    1        0.0000000007
    7    3    1    1        0.0253993942
    7    4    1    1       -0.0000000066
    7    7    1    1        0.1396259285
    7    1    2    1        0.0000000006
    7    1    2    2       -0.0041715971
    7    2    2    1       -0.0056825317
    7    2    2    2       -0.0000000015
    7    3    2    2        0.0253971770
    7    4    2    1        0.0332869699
    7    4    2    2        0.0000000066
    7    7    2    2        0.1396253152
    7    1    3    1        0.0008471280
    7    1    3    3        0.0015422680
    7    2    3    2        0.0008257077
    7    2    3    3        0.0000000002
    7    3    3    1        0.0004348406
    7    3    3    3        0.0231812505
    7    4    3    2       -0.0005657023
    7    7    3    1       -0.0001025920
    7    7    3    3        0.1277077797
    7    1    4    2       -0.0001656939
    7    1    4    4       -0.0006213303
    7    2    4    1       -0.0001840287
    7    2    4    3        0.0007825634
    7    3    4    2        0.0007998302
    7    3    4    4       -0.0012999489
    7    4    4    1       -0.0005574840
    7    4    4    3       -0.0237486598
    7    7    4    2        0.0000711428
    7    7    4    4        0.1235947146
    7    1    5    5        0.0003091410
    7    3    5    5        0.0091920446
    7    5    5    1        0.0000333379
    7    5    5    3        0.0001744570
    7    7    5    5        0.1041717036
    7    1    6    6        0.0003091410
    7    3    6    6        0.0091920446
    7    6    6    1        0.0000333379
    7    6    6    3        0.0001744570
    7    7    6    6        0.1041717036
    7    1    7    1        0.0006100674
    7    2    7    2        0.0005755370
    7    3    7    1        0.0011333207
    7    3    7    2        0.0000000001
    7    3    7    3        0.0178591472
    7    4    7    2       -0.0008798334
    7    4    7    4        0.0413186426
    7    5    7    5        0.0037421950
    7    6    7    6        0.0037421950
    7    7    7    1       -0.0000389898
    7    7    7    3        0.0002184255
    7    7    7    7        0.1207348090
    8    5    1    1       -0.0000000035
    8    6    1    1       -0.0000000038
    8    8    1    1        0.1180225962
    8    5    2    1        0.0174691525
    8    5    2    2        0.0000000035
    8    6    2    1        0.0192736374
    8    6    2    2        0.0000000038
    8    8    2    2        0.1180223412
    8    5    3    2       -0.0001871672
    8    6    3    2       -0.0002065007
    8    8    3    1       -0.0000813665
    8    8    3    3        0.1135983214
    8    5    4    1       -0.0001169739
    8    5    4    3       -0.0110892100
    8    6    4    1       -0.0001290568
    8    6    4    3       -0.0122346756
    8    8    4    2        0.0000020712
    8    8    4    4        0.1072244442
    8    1    5    2        0.0001853134
    8    1    5    4       -0.0002112489
    8    2    5    1        0.0001906659
    8    2    5    3        0.0004112258
    8    3    5    2        0.0002969636
    8    3    5    4       -0.0036646155
    8    4    5    1       -0.0003495196
    8    4    5    3       -0.0075668296
    8    7    5    2       -0.0000877983
    8    7    5    4        0.0044601958
    8    8    5    5        0.1026788011
    8    1    6    2        0.0002044554
    8    1    6    4       -0.0002330700
    8    2    6    1        0.0002103608
    8    2    6    3        0.0004537036
    8    3    6    2        0.0003276386
    8    3    6    4       -0.0040431538
    8    4    6    1       -0.0003856234
    8    4    6    3       -0.0083484490
    8    7    6    2       -0.0000968674
    8    7    6    4        0.0049209139
    8    8    6    5        0.0045532461
    8    8    6    6        0.1035754264
    8    2    7    5        0.0000085643
    8    2    7    6        0.0000094489
    8    4    7    5        0.0030713606
    8    4    7    6        0.0033886183
    8    5    7    2       -0.0002247858
    8    5    7    4        0.0149776056
    8    6    7    2       -0.0002480051
    8    6    7    4        0.0165247250
    8    8    7    1       -0.0000536312
    8    8    7    3        0.0004683749
    8    8    7    7        0.1012792541
    8    1    8    1        0.0001920599
    8    2    8    2        0.0001968654
    8    3    8    1        0.0003108608
    8    3    8    3        0.0046630248
    8    4    8    2       -0.0003489319
    8    4    8    4        0.0146490203
    8    5    8    5        0.0113131794
    8    6    8    5        0.0093268881
    8    6    8    6        0.0131498304
    8    7    8    1       -0.0000922628
    8    7    8    3       -0.0039621227
    8    7    8    7        0.0083938888
    8    8    8    8        0.1042607913
    9    5    1    1        0.0000000038
    9    6    1    1       -0.0000000035
    9    9    1    1        0.1180225962
    9    5    2    1       -0.0192736374
    9    5    2    2       -0.0000000038
    9    6    2    1        0.0174691525
    9    6    2    2        0.0000000035
    9    9    2    2        0.1180223412
    9    5    3    2        0.0002065007
    9    6    3    2       -0.0001871672
    9    9    3    1       -0.0000813665
    9    9    3    3        0.1135983214
    9    5    4    1        0.0001290568
    9    5    4    3        0.0122346756
    9    6    4    1       -0.0001169739
    9    6    4    3       -0.0110892100
    9    9    4    2        0.0000020712
    9    9    4    4        0.1072244442
    9    1    5    2       -0.0002044554
    9    1    5    4        0.0002330700
    9    2    5    1       -0.0002103608
    9    2    5    3       -0.0004537036
    9    3    5    2       -0.0003276386
    9    3    5    4        0.0040431538
    9    4    5    1        0.0003856234
    9    4    5    3        0.0083484490
    9    7    5    2        0.0000968674
    9    7    5    4       -0.0049209139
    9    8    5    5       -0.0045532461
    9    9    5    5        0.1035754264
    9    1    6    2        0.0001853134
    9    1    6    4       -0.0002112489
    9    2    6    1        0.0001906659
    9    2    6    3        0.0004112258
    9    3    6    2        0.0002969636
    9    3    6    4       -0.0036646155
    9    4    6    1       -0.0003495196
    9    4    6    3       -0.0075668296
    9    7    6    2       -0.0000877983
    9    7    6    4        0.0044601958
    9    8    6    5       -0.0004483126
    9    8    6    6        0.0045532461
    9    9    6    5       -0.0045532461
    9    9    6    6        0.1026788011
    9    2    7    5       -0.0000094489
    9    2    7    6        0.0000085643
    9    4    7    5       -0.0033886183
    9    4    7    6        0.0030713606
    9    5    7    2        0.0002480051
    9    5    7    4       -0.0165247250
    9    6    7    2       -0.0002247858
    9    6    7    4        0.0149776056
    9    9    7    1       -0.0000536312
    9    9    7    3        0.0004683749
    9    9    7    7        0.1012792541
    9    5    8    5       -0.0093268881
    9    5    8    6       -0.0074307970
    9    6    8    5        0.0055941461
    9    6    8    6        0.0093268881
    9    9    8    8        0.0937128589
    9    1    9    1        0.0001920599
    9    2    9    2        0.0001968654
    9    3    9    1        0.0003108608
    9    3    9    3        0.0046630248
    9    4    9    2       -0.0003489319
    9    4    9    4        0.0146490203
    9    5    9    5        0.0131498304
    9    6    9    5       -0.0093268881
    9    6    9    6        0.0113131794
    9    7    9    1       -0.0000922628
    9    7    9    3       -0.0039621227
    9    7    9    7        0.0083938888
    9    8    9    8        0.0052739662
    9    9    9    9        0.1042607913
   10    1    1    1        0.0000000104
   10    2    1    1       -0.0354378404
   10    3    1    1       -0.0000000081
   10    4    1    1       -0.0555354514
   10    7    1    1       -0.0000000002
   10   10    1    1        0.1340475112
   10    1    2    1       -0.0347960012
   10    1    2    2       -0.0000000034
   10    2    2    1       -0.0000000035
   10    2    2    2       -0.0354358690
   10    3    2    1        0.0406507374
   10    3    2    2        0.0000000081
   10    4    2    2       -0.0555343699
   10    7    2    1        0.0008956694
   10    7    2    2        0.0000000002
   10   10    2    2        0.1340463752
   10    1    3    1       -0.0000000008
   10    1    3    2        0.0041066541
   10    1    3    3        0.0000000002
   10    2    3    1        0.0040991716
   10    2    3    2        0.0000000008
   10    2    3    3       -0.0017516275
   10    3    3    1        0.0000000001
   10    3    3    2       -0.0011812471
   10    4    3    1        0.0006293265
   10    4    3    3       -0.0381151316
   10    7    3    2        0.0000614492
   10   10    3    1       -0.0006176902
   10   10    3    3        0.1167814596
   10    1    4    1       -0.0032930495
   10    1    4    3        0.0004645120
   10    2    4    2       -0.0033007899
   10    2    4    4       -0.0000536231
   10    3    4    1        0.0005647995
   10    3    4    3       -0.0141418846
   10    4    4    2       -0.0001744018
   10    4    4    4       -0.0212844766
   10    7    4    1        0.0001223119
   10    7    4    3       -0.0046295691
   10   10    4    2        0.0001355829
   10   10    4    4        0.1117603392
   10    2    5    5       -0.0001358728
   10    4    5    5       -0.0206437649
   10    5    5    2        0.0003674424
   10    5    5    4       -0.0027102957
   10    8    5    1        0.0001762507
   10    8    5    3        0.0017746115
   10    9    5    1       -0.0001944566
   10    9    5    3       -0.0019579209
   10   10    5    5        0.0972775900
   10    2    6    6       -0.0001358728
   10    4    6    6       -0.0206437649
   10    6    6    2        0.0003674424
   10    6    6    4       -0.0027102957
   10    8    6    1        0.0001944566
   10    8    6    3        0.0019579209
   10    9    6    1        0.0001762507
   10    9    6    3        0.0017746115
   10   10    6    6        0.0972775900
   10    1    7    2        0.0002515688
   10    1    7    4        0.0003977644
   10    2    7    1        0.0002381634
   10    2    7    3       -0.0005910959
   10    2    7    7       -0.0000523520
   10    3    7    2       -0.0004809220
   10    3    7    4        0.0119863418
   10    4    7    1        0.0002769883
   10    4    7    3       -0.0037045884
   10    4    7    7       -0.0108585436
   10    7    7    2        0.0001796055
   10    7    7    4        0.0143997367
   10    8    7    5        0.0011581175
   10    8    7    6        0.0012777459
   10    9    7    5       -0.0012777459
   10    9    7    6        0.0011581175
   10   10    7    1       -0.0003106274
   10   10    7    3       -0.0003247469
   10   10    7    7        0.1077089169
   10    1    8    5        0.0000859832
   10    1    8    6        0.0000948649
   10    2    8    8        0.0000176308
   10    3    8    5        0.0064409487
   10    3    8    6        0.0071062697
   10    4    8    8       -0.0112981366
   10    5    8    1        0.0001639097
   10    5    8    3        0.0015666981
   10    5    8    7        0.0000550431
   10    6    8    1        0.0001808408
   10    6    8    3        0.0017285309
   10    6    8    7        0.0000607288
   10    7    8    5        0.0052164743
   10    7    8    6        0.0057553127
   10    8    8    2        0.0001749594
   10    8    8    4        0.0010669034
   10   10    8    8        0.0939229655
   10    1    9    5       -0.0000948649
   10    1    9    6        0.0000859832
   10    2    9    9        0.0000176308
   10    3    9    5       -0.0071062697
   10    3    9    6        0.0064409487
   10    4    9    9       -0.0112981366
   10    5    9    1       -0.0001808408
   10    5    9    3       -0.0017285309
   10    5    9    7       -0.0000607288
   10    6    9    1        0.0001639097
   10    6    9    3        0.0015666981
   10    6    9    7        0.0000550431
   10    7    9    5       -0.0057553127
   10    7    9    6        0.0052164743
   10    9    9    2        0.0001749594
   10    9    9    4        0.0010669034
   10   10    9    9        0.0939229655
   10    1   10    1        0.0031024775
   10    2   10    2        0.0031080956
   10    3   10    1       -0.0005393810
   10    3   10    3        0.0121398692
   10    4   10    2        0.0001816137
   10    4   10    4        0.0177594944
   10    5   10    5        0.0030332712
   10    6   10    6        0.0030332712
   10    7   10    1       -0.0000849330
   10    7   10    3        0.0002618597
   10    7   10    7        0.0146420184
   10    8   10    8        0.0043085466
   10    9   10    9        0.0043085466
   10   10   10    2       -0.0001470374
   10   10   10    4       -0.0093849536
   10   10   10   10        0.1027576696
 end_two_electron_integrals
 onebody.inp
     -4.9361869991     1
      0.0000000000     2
     -4.9362241788     3
      0.1169522838     4
      0.0000000116     5
     -1.3869595504     6
      0.0000000076     7
     -0.0769759584     8
      0.0000000000     9
     -0.9159909333    10
      0.0000000000    11
     -0.0000000000    12
     -0.0000000000    13
     -0.0000000000    14
     -0.8280127058    15
     -0.0000000000    16
      0.0000000000    17
     -0.0000000000    18
      0.0000000000    19
     -0.0000000000    20
     -0.8280127058    21
      0.0039144612    22
      0.0000000004    23
     -0.1279684312    24
      0.0000000000    25
     -0.0000000000    26
      0.0000000000    27
     -0.7629225354    28
      0.0000000000    29
      0.0000000000    30
     -0.0000000000    31
      0.0000000000    32
     -0.0000000000    33
     -0.0000000000    34
     -0.0000000000    35
     -0.6411335493    36
     -0.0000000000    37
     -0.0000000000    38
      0.0000000000    39
     -0.0000000000    40
      0.0000000000    41
     -0.0000000000    42
     -0.0000000000    43
     -0.0000000000    44
     -0.6411335493    45
     -0.0000000071    46
      0.0714461395    47
     -0.0000000000    48
      0.2775448441    49
     -0.0000000000    50
      0.0000000000    51
      0.0000000000    52
     -0.0000000000    53
      0.0000000000    54
     -0.6895859493    55
 twobody.inp
    1    1    1    1        0.9005791983
    1    1    1    2       -0.0000001459
    1    1    1    3       -0.0582219126
    1    1    1    4       -0.0000000111
    1    1    1    7       -0.0041771511
    1    1    1   10        0.0000000104
    1    1    2    1       -0.0000001459
    1    1    2    2        0.9006122834
    1    1    2    3        0.0000000060
    1    1    2    4        0.0378039115
    1    1    2    7        0.0000000007
    1    1    2   10       -0.0354378404
    1    1    3    1       -0.0582219126
    1    1    3    2        0.0000000060
    1    1    3    3        0.2522559162
    1    1    3    4        0.0000000099
    1    1    3    7        0.0253993942
    1    1    3   10       -0.0000000081
    1    1    4    1       -0.0000000111
    1    1    4    2        0.0378039115
    1    1    4    3        0.0000000099
    1    1    4    4        0.1658035600
    1    1    4    7       -0.0000000066
    1    1    4   10       -0.0555354514
    1    1    5    5        0.1473910958
    1    1    5    8       -0.0000000035
    1    1    5    9        0.0000000038
    1    1    6    6        0.1473910958
    1    1    6    8       -0.0000000038
    1    1    6    9       -0.0000000035
    1    1    7    1       -0.0041771511
    1    1    7    2        0.0000000007
    1    1    7    3        0.0253993942
    1    1    7    4       -0.0000000066
    1    1    7    7        0.1396259285
    1    1    7   10       -0.0000000002
    1    1    8    5       -0.0000000035
    1    1    8    6       -0.0000000038
    1    1    8    8        0.1180225962
    1    1    9    5        0.0000000038
    1    1    9    6       -0.0000000035
    1    1    9    9        0.1180225962
    1    1   10    1        0.0000000104
    1    1   10    2       -0.0354378404
    1    1   10    3       -0.0000000081
    1    1   10    4       -0.0555354514
    1    1   10    7       -0.0000000002
    1    1   10   10        0.1340475112
    1    2    1    1       -0.0000001459
    1    2    1    2        0.7357393706
    1    2    1    3        0.0000000059
    1    2    1    4        0.0368678319
    1    2    1    7        0.0000000006
    1    2    1   10       -0.0347960012
    1    2    2    1        0.7357480613
    1    2    2    2        0.0000001459
    1    2    2    3       -0.0592078272
    1    2    2    4        0.0000000037
    1    2    2    7       -0.0056825317
    1    2    2   10       -0.0000000035
    1    2    3    1        0.0000000059
    1    2    3    2       -0.0592061106
    1    2    3    4       -0.0496772105
    1    2    3   10        0.0406507374
    1    2    4    1        0.0368669187
    1    2    4    2        0.0000000037
    1    2    4    3       -0.0496754199
    1    2    4    7        0.0332869699
    1    2    5    8        0.0174691525
    1    2    5    9       -0.0192736374
    1    2    6    8        0.0192736374
    1    2    6    9        0.0174691525
    1    2    7    1        0.0000000006
    1    2    7    2       -0.0056792794
    1    2    7    4        0.0332873638
    1    2    7   10        0.0008956694
    1    2    8    5        0.0174690607
    1    2    8    6        0.0192735361
    1    2    9    5       -0.0192735361
    1    2    9    6        0.0174690607
    1    2   10    1       -0.0347953632
    1    2   10    2       -0.0000000035
    1    2   10    3        0.0406498678
    1    2   10    7        0.0008960161
    1    3    1    1       -0.0582219126
    1    3    1    2        0.0000000059
    1    3    1    3        0.0050551931
    1    3    1    4        0.0000000009
    1    3    1    7        0.0008471280
    1    3    1   10       -0.0000000008
    1    3    2    1        0.0000000059
    1    3    2    2       -0.0582248525
    1    3    2    4       -0.0043042410
    1    3    2   10        0.0040991716
    1    3    3    1        0.0065697185
    1    3    3    3       -0.0010560157
    1    3    3    4       -0.0000000001
    1    3    3    7        0.0004348406
    1    3    3   10        0.0000000001
    1    3    4    1        0.0000000010
    1    3    4    2       -0.0048621397
    1    3    4    3       -0.0000000002
    1    3    4    4       -0.0008638938
    1    3    4   10        0.0006293265
    1    3    5    5        0.0001328287
    1    3    6    6        0.0001328287
    1    3    7    1        0.0009533286
    1    3    7    3        0.0002529833
    1    3    7    7       -0.0001025920
    1    3    8    8       -0.0000813665
    1    3    9    9       -0.0000813665
    1    3   10    1       -0.0000000009
    1    3   10    2        0.0044312055
    1    3   10    3        0.0000000001
    1    3   10    4        0.0006333122
    1    3   10   10       -0.0006176902
    1    4    1    1       -0.0000000111
    1    4    1    2        0.0368678319
    1    4    1    3        0.0000000009
    1    4    1    4        0.0035056477
    1    4    1   10       -0.0032930495
    1    4    2    1        0.0368669187
    1    4    2    2        0.0000000036
    1    4    2    3       -0.0043145480
    1    4    2    7       -0.0001840287
    1    4    3    1        0.0000000010
    1    4    3    2       -0.0048722712
    1    4    3    3       -0.0000000002
    1    4    3    4       -0.0004003294
    1    4    3   10        0.0005647995
    1    4    4    1        0.0026620132
    1    4    4    3       -0.0001034646
    1    4    4    7       -0.0005574840
    1    4    5    8       -0.0001169739
    1    4    5    9        0.0001290568
    1    4    6    8       -0.0001290568
    1    4    6    9       -0.0001169739
    1    4    7    2       -0.0000884880
    1    4    7    4       -0.0005495855
    1    4    7   10        0.0001223119
    1    4    8    5       -0.0001153621
    1    4    8    6       -0.0001272784
    1    4    9    5        0.0001272784
    1    4    9    6       -0.0001153621
    1    4   10    1       -0.0024771402
    1    4   10    3        0.0002330507
    1    4   10    7        0.0001268952
    1    5    1    5        0.0003881056
    1    5    2    8        0.0001906659
    1    5    2    9       -0.0002103608
    1    5    3    5        0.0009892870
    1    5    4    8       -0.0003495196
    1    5    4    9        0.0003856234
    1    5    5    1        0.0003623591
    1    5    5    3        0.0009593403
    1    5    5    7        0.0000333379
    1    5    7    5        0.0000457551
    1    5    8    2        0.0001677083
    1    5    8    4       -0.0003472961
    1    5    8   10        0.0001762507
    1    5    9    2       -0.0001850318
    1    5    9    4        0.0003831703
    1    5    9   10       -0.0001944566
    1    5   10    8        0.0001778335
    1    5   10    9       -0.0001962029
    1    6    1    6        0.0003881056
    1    6    2    8        0.0002103608
    1    6    2    9        0.0001906659
    1    6    3    6        0.0009892870
    1    6    4    8       -0.0003856234
    1    6    4    9       -0.0003495196
    1    6    6    1        0.0003623591
    1    6    6    3        0.0009593403
    1    6    6    7        0.0000333379
    1    6    7    6        0.0000457551
    1    6    8    2        0.0001850318
    1    6    8    4       -0.0003831703
    1    6    8   10        0.0001944566
    1    6    9    2        0.0001677083
    1    6    9    4       -0.0003472961
    1    6    9   10        0.0001762507
    1    6   10    8        0.0001962029
    1    6   10    9        0.0001778335
    1    7    1    1       -0.0041771511
    1    7    1    2        0.0000000006
    1    7    1    3        0.0008471280
    1    7    1    7        0.0006100674
    1    7    2    1        0.0000000006
    1    7    2    2       -0.0041715971
    1    7    2    4       -0.0001656939
    1    7    2   10        0.0002381634
    1    7    3    1        0.0009533286
    1    7    3    3        0.0015422680
    1    7    3    7        0.0011333207
    1    7    4    2       -0.0000725827
    1    7    4    4       -0.0006213303
    1    7    4   10        0.0002769883
    1    7    5    5        0.0003091410
    1    7    6    6        0.0003091410
    1    7    7    1        0.0005243710
    1    7    7    3        0.0010754892
    1    7    7    7       -0.0000389898
    1    7    8    8       -0.0000536312
    1    7    9    9       -0.0000536312
    1    7   10    2        0.0001402684
    1    7   10    4        0.0002705722
    1    7   10   10       -0.0003106274
    1    8    1    8        0.0001920599
    1    8    2    5        0.0001853134
    1    8    2    6        0.0002044554
    1    8    3    8        0.0003108608
    1    8    4    5       -0.0002112489
    1    8    4    6       -0.0002330700
    1    8    5    2        0.0001630698
    1    8    5    4       -0.0002099483
    1    8    5   10        0.0001639097
    1    8    6    2        0.0001799141
    1    8    6    4       -0.0002316350
    1    8    6   10        0.0001808408
    1    8    7    8       -0.0000922628
    1    8    8    1        0.0001692220
    1    8    8    3        0.0002539604
    1    8    8    7       -0.0000941408
    1    8   10    5        0.0001644939
    1    8   10    6        0.0001814854
    1    9    1    9        0.0001920599
    1    9    2    5       -0.0002044554
    1    9    2    6        0.0001853134
    1    9    3    9        0.0003108608
    1    9    4    5        0.0002330700
    1    9    4    6       -0.0002112489
    1    9    5    2       -0.0001799141
    1    9    5    4        0.0002316350
    1    9    5   10       -0.0001808408
    1    9    6    2        0.0001630698
    1    9    6    4       -0.0002099483
    1    9    6   10        0.0001639097
    1    9    7    9       -0.0000922628
    1    9    9    1        0.0001692220
    1    9    9    3        0.0002539604
    1    9    9    7       -0.0000941408
    1    9   10    5       -0.0001814854
    1    9   10    6        0.0001644939
    1   10    1    1        0.0000000104
    1   10    1    2       -0.0347960012
    1   10    1    3       -0.0000000008
    1   10    1    4       -0.0032930495
    1   10    1   10        0.0031024775
    1   10    2    1       -0.0347953632
    1   10    2    2       -0.0000000034
    1   10    2    3        0.0041066541
    1   10    2    7        0.0002515688
    1   10    3    1       -0.0000000009
    1   10    3    2        0.0044385033
    1   10    3    3        0.0000000002
    1   10    3    4        0.0004645120
    1   10    3   10       -0.0005393810
    1   10    4    1       -0.0024771402
    1   10    4    3        0.0001603464
    1   10    4    7        0.0003977644
    1   10    5    8        0.0000859832
    1   10    5    9       -0.0000948649
    1   10    6    8        0.0000948649
    1   10    6    9        0.0000859832
    1   10    7    2        0.0001517015
    1   10    7    4        0.0003853393
    1   10    7   10       -0.0000849330
    1   10    8    5        0.0000848324
    1   10    8    6        0.0000935952
    1   10    9    5       -0.0000935952
    1   10    9    6        0.0000848324
    1   10   10    1        0.0023158526
    1   10   10    3       -0.0002490757
    1   10   10    7       -0.0000908577
    2    1    1    1       -0.0000001459
    2    1    1    2        0.7357480613
    2    1    1    3        0.0000000059
    2    1    1    4        0.0368669187
    2    1    1    7        0.0000000006
    2    1    1   10       -0.0347953632
    2    1    2    1        0.7357393706
    2    1    2    2        0.0000001459
    2    1    2    3       -0.0592061106
    2    1    2    4        0.0000000037
    2    1    2    7       -0.0056792794
    2    1    2   10       -0.0000000035
    2    1    3    1        0.0000000059
    2    1    3    2       -0.0592078272
    2    1    3    4       -0.0496754199
    2    1    3   10        0.0406498678
    2    1    4    1        0.0368678319
    2    1    4    2        0.0000000037
    2    1    4    3       -0.0496772105
    2    1    4    7        0.0332873638
    2    1    5    8        0.0174690607
    2    1    5    9       -0.0192735361
    2    1    6    8        0.0192735361
    2    1    6    9        0.0174690607
    2    1    7    1        0.0000000006
    2    1    7    2       -0.0056825317
    2    1    7    4        0.0332869699
    2    1    7   10        0.0008960161
    2    1    8    5        0.0174691525
    2    1    8    6        0.0192736374
    2    1    9    5       -0.0192736374
    2    1    9    6        0.0174691525
    2    1   10    1       -0.0347960012
    2    1   10    2       -0.0000000035
    2    1   10    3        0.0406507374
    2    1   10    7        0.0008956694
    2    2    1    1        0.9006122834
    2    2    1    2        0.0000001459
    2    2    1    3       -0.0582248525
    2    2    1    4        0.0000000036
    2    2    1    7       -0.0041715971
    2    2    1   10       -0.0000000034
    2    2    2    1        0.0000001459
    2    2    2    2        0.9006279874
    2    2    2    3       -0.0000000175
    2    2    2    4        0.0378009575
    2    2    2    7       -0.0000000015
    2    2    2   10       -0.0354358690
    2    2    3    1       -0.0582248525
    2    2    3    2       -0.0000000175
    2    2    3    3        0.2522613814
    2    2    3    4       -0.0000000099
    2    2    3    7        0.0253971770
    2    2    3   10        0.0000000081
    2    2    4    1        0.0000000036
    2    2    4    2        0.0378009575
    2    2    4    3       -0.0000000099
    2    2    4    4        0.1658007624
    2    2    4    7        0.0000000066
    2    2    4   10       -0.0555343699
    2    2    5    5        0.1473928498
    2    2    5    8        0.0000000035
    2    2    5    9       -0.0000000038
    2    2    6    6        0.1473928498
    2    2    6    8        0.0000000038
    2    2    6    9        0.0000000035
    2    2    7    1       -0.0041715971
    2    2    7    2       -0.0000000015
    2    2    7    3        0.0253971770
    2    2    7    4        0.0000000066
    2    2    7    7        0.1396253152
    2    2    7   10        0.0000000002
    2    2    8    5        0.0000000035
    2    2    8    6        0.0000000038
    2    2    8    8        0.1180223412
    2    2    9    5       -0.0000000038
    2    2    9    6        0.0000000035
    2    2    9    9        0.1180223412
    2    2   10    1       -0.0000000034
    2    2   10    2       -0.0354358690
    2    2   10    3        0.0000000081
    2    2   10    4       -0.0555343699
    2    2   10    7        0.0000000002
    2    2   10   10        0.1340463752
    2    3    1    1        0.0000000060
    2    3    1    2       -0.0592078272
    2    3    1    4       -0.0043145480
    2    3    1   10        0.0041066541
    2    3    2    1       -0.0592061106
    2    3    2    2       -0.0000000175
    2    3    2    3        0.0050603038
    2    3    2    4       -0.0000000009
    2    3    2    7        0.0008257077
    2    3    2   10        0.0000000008
    2    3    3    2        0.0065602628
    2    3    3    3       -0.0000000001
    2    3    3    4        0.0013918188
    2    3    3   10       -0.0011812471
    2    3    4    1       -0.0048722712
    2    3    4    2       -0.0000000010
    2    3    4    3        0.0015256884
    2    3    4    7       -0.0005657023
    2    3    5    8       -0.0001871672
    2    3    5    9        0.0002065007
    2    3    6    8       -0.0002065007
    2    3    6    9       -0.0001871672
    2    3    7    2        0.0009302433
    2    3    7    4       -0.0005002003
    2    3    7   10        0.0000614492
    2    3    8    5       -0.0001942329
    2    3    8    6       -0.0002142962
    2    3    9    5        0.0002142962
    2    3    9    6       -0.0001942329
    2    3   10    1        0.0044385033
    2    3   10    2        0.0000000009
    2    3   10    3       -0.0012908333
    2    3   10    7        0.0001040639
    2    4    1    1        0.0378039115
    2    4    1    2        0.0000000037
    2    4    1    3       -0.0043042410
    2    4    1    7       -0.0001656939
    2    4    2    1        0.0000000037
    2    4    2    2        0.0378009575
    2    4    2    3       -0.0000000009
    2    4    2    4        0.0035158836
    2    4    2   10       -0.0033007899
    2    4    3    1       -0.0048621397
    2    4    3    2       -0.0000000010
    2    4    3    3        0.0021920377
    2    4    3    7        0.0007998302
    2    4    4    2        0.0026711138
    2    4    4    4        0.0000060240
    2    4    4   10       -0.0001744018
    2    4    5    5        0.0002308209
    2    4    6    6        0.0002308209
    2    4    7    1       -0.0000725827
    2    4    7    3        0.0007382237
    2    4    7    7        0.0000711428
    2    4    8    8        0.0000020712
    2    4    9    9        0.0000020712
    2    4   10    2       -0.0024838504
    2    4   10    4       -0.0001735198
    2    4   10   10        0.0001355829
    2    5    1    8        0.0001853134
    2    5    1    9       -0.0002044554
    2    5    2    5        0.0003744749
    2    5    3    8        0.0002969636
    2    5    3    9       -0.0003276386
    2    5    4    5       -0.0004739408
    2    5    5    2        0.0003509077
    2    5    5    4       -0.0004718554
    2    5    5   10        0.0003674424
    2    5    7    8       -0.0000877983
    2    5    7    9        0.0000968674
    2    5    8    1        0.0001630698
    2    5    8    3        0.0002584442
    2    5    8    7       -0.0000896248
    2    5    9    1       -0.0001799141
    2    5    9    3       -0.0002851403
    2    5    9    7        0.0000988827
    2    5   10    5        0.0003675824
    2    6    1    8        0.0002044554
    2    6    1    9        0.0001853134
    2    6    2    6        0.0003744749
    2    6    3    8        0.0003276386
    2    6    3    9        0.0002969636
    2    6    4    6       -0.0004739408
    2    6    6    2        0.0003509077
    2    6    6    4       -0.0004718554
    2    6    6   10        0.0003674424
    2    6    7    8       -0.0000968674
    2    6    7    9       -0.0000877983
    2    6    8    1        0.0001799141
    2    6    8    3        0.0002851403
    2    6    8    7       -0.0000988827
    2    6    9    1        0.0001630698
    2    6    9    3        0.0002584442
    2    6    9    7       -0.0000896248
    2    6   10    6        0.0003675824
    2    7    1    1        0.0000000007
    2    7    1    2       -0.0056825317
    2    7    1    4       -0.0001840287
    2    7    1   10        0.0002515688
    2    7    2    1       -0.0056792794
    2    7    2    2       -0.0000000015
    2    7    2    3        0.0008257077
    2    7    2    7        0.0005755370
    2    7    3    2        0.0009302433
    2    7    3    3        0.0000000002
    2    7    3    4        0.0007825634
    2    7    3    7        0.0000000001
    2    7    3   10       -0.0004809220
    2    7    4    1       -0.0000884880
    2    7    4    3        0.0006010303
    2    7    4    7       -0.0008798334
    2    7    5    8       -0.0002247858
    2    7    5    9        0.0002480051
    2    7    6    8       -0.0002480051
    2    7    6    9       -0.0002247858
    2    7    7    2        0.0004934299
    2    7    7    3        0.0000000001
    2    7    7    4       -0.0008671460
    2    7    7   10        0.0001796055
    2    7    8    5       -0.0002252234
    2    7    8    6       -0.0002484880
    2    7    9    5        0.0002484880
    2    7    9    6       -0.0002252234
    2    7   10    1        0.0001517015
    2    7   10    3       -0.0003651300
    2    7   10    7        0.0001892095
    2    8    1    5        0.0001906659
    2    8    1    6        0.0002103608
    2    8    2    8        0.0001968654
    2    8    3    5        0.0004112258
    2    8    3    6        0.0004537036
    2    8    4    8       -0.0003489319
    2    8    5    1        0.0001677083
    2    8    5    3        0.0003962554
    2    8    5    7        0.0000085643
    2    8    6    1        0.0001850318
    2    8    6    3        0.0004371868
    2    8    6    7        0.0000094489
    2    8    7    5        0.0000103518
    2    8    7    6        0.0000114211
    2    8    8    2        0.0001734032
    2    8    8    4       -0.0003481469
    2    8    8   10        0.0001749594
    2    8   10    8        0.0001755817
    2    9    1    5       -0.0002103608
    2    9    1    6        0.0001906659
    2    9    2    9        0.0001968654
    2    9    3    5       -0.0004537036
    2    9    3    6        0.0004112258
    2    9    4    9       -0.0003489319
    2    9    5    1       -0.0001850318
    2    9    5    3       -0.0004371868
    2    9    5    7       -0.0000094489
    2    9    6    1        0.0001677083
    2    9    6    3        0.0003962554
    2    9    6    7        0.0000085643
    2    9    7    5       -0.0000114211
    2    9    7    6        0.0000103518
    2    9    9    2        0.0001734032
    2    9    9    4       -0.0003481469
    2    9    9   10        0.0001749594
    2    9   10    9        0.0001755817
    2   10    1    1       -0.0354378404
    2   10    1    2       -0.0000000035
    2   10    1    3        0.0040991716
    2   10    1    7        0.0002381634
    2   10    2    1       -0.0000000035
    2   10    2    2       -0.0354358690
    2   10    2    3        0.0000000008
    2   10    2    4       -0.0033007899
    2   10    2   10        0.0031080956
    2   10    3    1        0.0044312055
    2   10    3    2        0.0000000009
    2   10    3    3       -0.0017516275
    2   10    3    7       -0.0005910959
    2   10    4    2       -0.0024838504
    2   10    4    4       -0.0000536231
    2   10    4   10        0.0001816137
    2   10    5    5       -0.0001358728
    2   10    6    6       -0.0001358728
    2   10    7    1        0.0001402684
    2   10    7    3       -0.0005394134
    2   10    7    7       -0.0000523520
    2   10    8    8        0.0000176308
    2   10    9    9        0.0000176308
    2   10   10    2        0.0023208464
    2   10   10    4        0.0001800688
    2   10   10   10       -0.0001470374
    3    1    1    1       -0.0582219126
    3    1    1    2        0.0000000059
    3    1    1    3        0.0065697185
    3    1    1    4        0.0000000010
    3    1    1    7        0.0009533286
    3    1    1   10       -0.0000000009
    3    1    2    1        0.0000000059
    3    1    2    2       -0.0582248525
    3    1    2    4       -0.0048621397
    3    1    2   10        0.0044312055
    3    1    3    1        0.0050551931
    3    1    3    3       -0.0010560157
    3    1    3    4       -0.0000000002
    3    1    3    7        0.0002529833
    3    1    3   10        0.0000000001
    3    1    4    1        0.0000000009
    3    1    4    2       -0.0043042410
    3    1    4    3       -0.0000000001
    3    1    4    4       -0.0008638938
    3    1    4   10        0.0006333122
    3    1    5    5        0.0001328287
    3    1    6    6        0.0001328287
    3    1    7    1        0.0008471280
[...]
   10    9    9    4        0.0010669034
   10    9    9   10        0.0043085466
   10    9   10    9        0.0043085466
   10   10    1    1        0.1340475112
   10   10    1    3       -0.0006176902
   10   10    1    7       -0.0003106274
   10   10    2    2        0.1340463752
   10   10    2    4        0.0001355829
   10   10    2   10       -0.0001470374
   10   10    3    1       -0.0006176902
   10   10    3    3        0.1167814596
   10   10    3    7       -0.0003247469
   10   10    4    2        0.0001355829
   10   10    4    4        0.1117603392
   10   10    4   10       -0.0093849536
   10   10    5    5        0.0972775900
   10   10    6    6        0.0972775900
   10   10    7    1       -0.0003106274
   10   10    7    3       -0.0003247469
   10   10    7    7        0.1077089169
   10   10    8    8        0.0939229655
   10   10    9    9        0.0939229655
   10   10   10    2       -0.0001470374
   10   10   10    4       -0.0093849536
   10   10   10   10        0.1027576696
 fcidump
      0.9005791983     1   1   1   1
     -0.0000001459     2   1   1   1
      0.7357393706     2   1   2   1
      0.9006122834     2   2   1   1
      0.0000001459     2   2   2   1
      0.9006279874     2   2   2   2
     -0.0582219126     3   1   1   1
      0.0000000059     3   1   2   1
     -0.0582248525     3   1   2   2
      0.0050551931     3   1   3   1
      0.0000000060     3   2   1   1
     -0.0592078272     3   2   2   1
     -0.0000000175     3   2   2   2
      0.0050603038     3   2   3   2
      0.2522559162     3   3   1   1
      0.2522613814     3   3   2   2
     -0.0010560157     3   3   3   1
     -0.0000000001     3   3   3   2
      0.2145754521     3   3   3   3
     -0.0000000111     4   1   1   1
      0.0368678319     4   1   2   1
      0.0000000036     4   1   2   2
      0.0000000009     4   1   3   1
     -0.0043145480     4   1   3   2
     -0.0000000002     4   1   3   3
      0.0035056477     4   1   4   1
      0.0378039115     4   2   1   1
      0.0000000037     4   2   2   1
      0.0378009575     4   2   2   2
     -0.0043042410     4   2   3   1
     -0.0000000009     4   2   3   2
      0.0021920377     4   2   3   3
      0.0035158836     4   2   4   2
      0.0000000099     4   3   1   1
     -0.0496772105     4   3   2   1
     -0.0000000099     4   3   2   2
     -0.0000000001     4   3   3   1
      0.0013918188     4   3   3   2
     -0.0004003294     4   3   4   1
      0.0225413114     4   3   4   3
      0.1658035600     4   4   1   1
      0.1658007624     4   4   2   2
     -0.0008638938     4   4   3   1
      0.1409291420     4   4   3   3
      0.0000060240     4   4   4   2
      0.1343720447     4   4   4   4
      0.0003881056     5   1   5   1
      0.0003744749     5   2   5   2
      0.0009892870     5   3   5   1
      0.0230344941     5   3   5   3
     -0.0004739408     5   4   5   2
      0.0080309629     5   4   5   4
      0.1473910958     5   5   1   1
      0.1473928498     5   5   2   2
      0.0001328287     5   5   3   1
      0.1430178866     5   5   3   3
      0.0002308209     5   5   4   2
      0.1137499291     5   5   4   4
      0.1266342751     5   5   5   5
      0.0003881056     6   1   6   1
      0.0003744749     6   2   6   2
      0.0009892870     6   3   6   1
      0.0230344941     6   3   6   3
     -0.0004739408     6   4   6   2
      0.0080309629     6   4   6   4
      0.0064976394     6   5   6   5
      0.1473910958     6   6   1   1
      0.1473928498     6   6   2   2
      0.0001328287     6   6   3   1
      0.1430178866     6   6   3   3
      0.0002308209     6   6   4   2
      0.1137499291     6   6   4   4
      0.1136389963     6   6   5   5
      0.1266342751     6   6   6   6
     -0.0041771511     7   1   1   1
      0.0000000006     7   1   2   1
     -0.0041715971     7   1   2   2
      0.0008471280     7   1   3   1
      0.0015422680     7   1   3   3
     -0.0001656939     7   1   4   2
     -0.0006213303     7   1   4   4
      0.0003091410     7   1   5   5
      0.0003091410     7   1   6   6
      0.0006100674     7   1   7   1
      0.0000000007     7   2   1   1
     -0.0056825317     7   2   2   1
     -0.0000000015     7   2   2   2
      0.0008257077     7   2   3   2
      0.0000000002     7   2   3   3
     -0.0001840287     7   2   4   1
      0.0007825634     7   2   4   3
      0.0005755370     7   2   7   2
      0.0253993942     7   3   1   1
      0.0253971770     7   3   2   2
      0.0004348406     7   3   3   1
      0.0231812505     7   3   3   3
      0.0007998302     7   3   4   2
     -0.0012999489     7   3   4   4
      0.0091920446     7   3   5   5
      0.0091920446     7   3   6   6
      0.0011333207     7   3   7   1
      0.0000000001     7   3   7   2
      0.0178591472     7   3   7   3
     -0.0000000066     7   4   1   1
      0.0332869699     7   4   2   1
      0.0000000066     7   4   2   2
     -0.0005657023     7   4   3   2
     -0.0005574840     7   4   4   1
     -0.0237486598     7   4   4   3
     -0.0008798334     7   4   7   2
      0.0413186426     7   4   7   4
      0.0000333379     7   5   5   1
      0.0001744570     7   5   5   3
      0.0037421950     7   5   7   5
      0.0000333379     7   6   6   1
      0.0001744570     7   6   6   3
      0.0037421950     7   6   7   6
      0.1396259285     7   7   1   1
      0.1396253152     7   7   2   2
     -0.0001025920     7   7   3   1
      0.1277077797     7   7   3   3
      0.0000711428     7   7   4   2
      0.1235947146     7   7   4   4
      0.1041717036     7   7   5   5
      0.1041717036     7   7   6   6
     -0.0000389898     7   7   7   1
      0.0002184255     7   7   7   3
      0.1207348090     7   7   7   7
      0.0001853134     8   1   5   2
     -0.0002112489     8   1   5   4
      0.0002044554     8   1   6   2
     -0.0002330700     8   1   6   4
      0.0001920599     8   1   8   1
      0.0001906659     8   2   5   1
      0.0004112258     8   2   5   3
      0.0002103608     8   2   6   1
      0.0004537036     8   2   6   3
      0.0000085643     8   2   7   5
      0.0000094489     8   2   7   6
      0.0001968654     8   2   8   2
      0.0002969636     8   3   5   2
     -0.0036646155     8   3   5   4
      0.0003276386     8   3   6   2
     -0.0040431538     8   3   6   4
      0.0003108608     8   3   8   1
      0.0046630248     8   3   8   3
     -0.0003495196     8   4   5   1
     -0.0075668296     8   4   5   3
     -0.0003856234     8   4   6   1
     -0.0083484490     8   4   6   3
      0.0030713606     8   4   7   5
      0.0033886183     8   4   7   6
     -0.0003489319     8   4   8   2
      0.0146490203     8   4   8   4
     -0.0000000035     8   5   1   1
      0.0174691525     8   5   2   1
      0.0000000035     8   5   2   2
     -0.0001871672     8   5   3   2
     -0.0001169739     8   5   4   1
     -0.0110892100     8   5   4   3
     -0.0002247858     8   5   7   2
      0.0149776056     8   5   7   4
      0.0113131794     8   5   8   5
     -0.0000000038     8   6   1   1
      0.0192736374     8   6   2   1
      0.0000000038     8   6   2   2
     -0.0002065007     8   6   3   2
     -0.0001290568     8   6   4   1
     -0.0122346756     8   6   4   3
     -0.0002480051     8   6   7   2
      0.0165247250     8   6   7   4
      0.0093268881     8   6   8   5
      0.0131498304     8   6   8   6
     -0.0000877983     8   7   5   2
      0.0044601958     8   7   5   4
     -0.0000968674     8   7   6   2
      0.0049209139     8   7   6   4
     -0.0000922628     8   7   8   1
     -0.0039621227     8   7   8   3
      0.0083938888     8   7   8   7
      0.1180225962     8   8   1   1
      0.1180223412     8   8   2   2
     -0.0000813665     8   8   3   1
      0.1135983214     8   8   3   3
      0.0000020712     8   8   4   2
      0.1072244442     8   8   4   4
      0.1026788011     8   8   5   5
      0.0045532461     8   8   6   5
      0.1035754264     8   8   6   6
     -0.0000536312     8   8   7   1
      0.0004683749     8   8   7   3
      0.1012792541     8   8   7   7
      0.1042607913     8   8   8   8
     -0.0002044554     9   1   5   2
      0.0002330700     9   1   5   4
      0.0001853134     9   1   6   2
     -0.0002112489     9   1   6   4
      0.0001920599     9   1   9   1
     -0.0002103608     9   2   5   1
     -0.0004537036     9   2   5   3
      0.0001906659     9   2   6   1
      0.0004112258     9   2   6   3
     -0.0000094489     9   2   7   5
      0.0000085643     9   2   7   6
      0.0001968654     9   2   9   2
     -0.0003276386     9   3   5   2
      0.0040431538     9   3   5   4
      0.0002969636     9   3   6   2
     -0.0036646155     9   3   6   4
      0.0003108608     9   3   9   1
      0.0046630248     9   3   9   3
      0.0003856234     9   4   5   1
      0.0083484490     9   4   5   3
     -0.0003495196     9   4   6   1
     -0.0075668296     9   4   6   3
     -0.0033886183     9   4   7   5
      0.0030713606     9   4   7   6
     -0.0003489319     9   4   9   2
      0.0146490203     9   4   9   4
      0.0000000038     9   5   1   1
     -0.0192736374     9   5   2   1
     -0.0000000038     9   5   2   2
      0.0002065007     9   5   3   2
      0.0001290568     9   5   4   1
      0.0122346756     9   5   4   3
      0.0002480051     9   5   7   2
     -0.0165247250     9   5   7   4
     -0.0093268881     9   5   8   5
     -0.0074307970     9   5   8   6
      0.0131498304     9   5   9   5
     -0.0000000035     9   6   1   1
      0.0174691525     9   6   2   1
      0.0000000035     9   6   2   2
     -0.0001871672     9   6   3   2
     -0.0001169739     9   6   4   1
     -0.0110892100     9   6   4   3
     -0.0002247858     9   6   7   2
      0.0149776056     9   6   7   4
      0.0055941461     9   6   8   5
      0.0093268881     9   6   8   6
     -0.0093268881     9   6   9   5
      0.0113131794     9   6   9   6
      0.0000968674     9   7   5   2
     -0.0049209139     9   7   5   4
     -0.0000877983     9   7   6   2
      0.0044601958     9   7   6   4
     -0.0000922628     9   7   9   1
     -0.0039621227     9   7   9   3
      0.0083938888     9   7   9   7
     -0.0045532461     9   8   5   5
     -0.0004483126     9   8   6   5
      0.0045532461     9   8   6   6
      0.0052739662     9   8   9   8
      0.1180225962     9   9   1   1
      0.1180223412     9   9   2   2
     -0.0000813665     9   9   3   1
      0.1135983214     9   9   3   3
      0.0000020712     9   9   4   2
      0.1072244442     9   9   4   4
      0.1035754264     9   9   5   5
     -0.0045532461     9   9   6   5
      0.1026788011     9   9   6   6
     -0.0000536312     9   9   7   1
      0.0004683749     9   9   7   3
      0.1012792541     9   9   7   7
      0.0937128589     9   9   8   8
      0.1042607913     9   9   9   9
      0.0000000104    10   1   1   1
     -0.0347960012    10   1   2   1
     -0.0000000034    10   1   2   2
     -0.0000000008    10   1   3   1
      0.0041066541    10   1   3   2
      0.0000000002    10   1   3   3
     -0.0032930495    10   1   4   1
      0.0004645120    10   1   4   3
      0.0002515688    10   1   7   2
      0.0003977644    10   1   7   4
      0.0000859832    10   1   8   5
      0.0000948649    10   1   8   6
     -0.0000948649    10   1   9   5
      0.0000859832    10   1   9   6
      0.0031024775    10   1  10   1
     -0.0354378404    10   2   1   1
     -0.0000000035    10   2   2   1
     -0.0354358690    10   2   2   2
      0.0040991716    10   2   3   1
      0.0000000008    10   2   3   2
     -0.0017516275    10   2   3   3
     -0.0033007899    10   2   4   2
     -0.0000536231    10   2   4   4
     -0.0001358728    10   2   5   5
     -0.0001358728    10   2   6   6
      0.0002381634    10   2   7   1
     -0.0005910959    10   2   7   3
     -0.0000523520    10   2   7   7
      0.0000176308    10   2   8   8
      0.0000176308    10   2   9   9
      0.0031080956    10   2  10   2
     -0.0000000081    10   3   1   1
      0.0406507374    10   3   2   1
      0.0000000081    10   3   2   2
      0.0000000001    10   3   3   1
     -0.0011812471    10   3   3   2
      0.0005647995    10   3   4   1
     -0.0141418846    10   3   4   3
     -0.0004809220    10   3   7   2
      0.0119863418    10   3   7   4
      0.0064409487    10   3   8   5
      0.0071062697    10   3   8   6
     -0.0071062697    10   3   9   5
      0.0064409487    10   3   9   6
     -0.0005393810    10   3  10   1
      0.0121398692    10   3  10   3
     -0.0555354514    10   4   1   1
     -0.0555343699    10   4   2   2
      0.0006293265    10   4   3   1
     -0.0381151316    10   4   3   3
     -0.0001744018    10   4   4   2
     -0.0212844766    10   4   4   4
     -0.0206437649    10   4   5   5
     -0.0206437649    10   4   6   6
      0.0002769883    10   4   7   1
     -0.0037045884    10   4   7   3
     -0.0108585436    10   4   7   7
     -0.0112981366    10   4   8   8
     -0.0112981366    10   4   9   9
      0.0001816137    10   4  10   2
      0.0177594944    10   4  10   4
      0.0003674424    10   5   5   2
     -0.0027102957    10   5   5   4
      0.0001639097    10   5   8   1
      0.0015666981    10   5   8   3
      0.0000550431    10   5   8   7
     -0.0001808408    10   5   9   1
     -0.0017285309    10   5   9   3
     -0.0000607288    10   5   9   7
      0.0030332712    10   5  10   5
      0.0003674424    10   6   6   2
     -0.0027102957    10   6   6   4
      0.0001808408    10   6   8   1
      0.0017285309    10   6   8   3
      0.0000607288    10   6   8   7
      0.0001639097    10   6   9   1
      0.0015666981    10   6   9   3
      0.0000550431    10   6   9   7
      0.0030332712    10   6  10   6
     -0.0000000002    10   7   1   1
      0.0008956694    10   7   2   1
      0.0000000002    10   7   2   2
      0.0000614492    10   7   3   2
      0.0001223119    10   7   4   1
     -0.0046295691    10   7   4   3
      0.0001796055    10   7   7   2
      0.0143997367    10   7   7   4
      0.0052164743    10   7   8   5
      0.0057553127    10   7   8   6
     -0.0057553127    10   7   9   5
      0.0052164743    10   7   9   6
     -0.0000849330    10   7  10   1
      0.0002618597    10   7  10   3
      0.0146420184    10   7  10   7
      0.0001762507    10   8   5   1
      0.0017746115    10   8   5   3
      0.0001944566    10   8   6   1
      0.0019579209    10   8   6   3
      0.0011581175    10   8   7   5
      0.0012777459    10   8   7   6
      0.0001749594    10   8   8   2
      0.0010669034    10   8   8   4
      0.0043085466    10   8  10   8
     -0.0001944566    10   9   5   1
     -0.0019579209    10   9   5   3
      0.0001762507    10   9   6   1
      0.0017746115    10   9   6   3
     -0.0012777459    10   9   7   5
      0.0011581175    10   9   7   6
      0.0001749594    10   9   9   2
      0.0010669034    10   9   9   4
      0.0043085466    10   9  10   9
      0.1340475112    10  10   1   1
      0.1340463752    10  10   2   2
     -0.0006176902    10  10   3   1
      0.1167814596    10  10   3   3
      0.0001355829    10  10   4   2
      0.1117603392    10  10   4   4
      0.0972775900    10  10   5   5
      0.0972775900    10  10   6   6
     -0.0003106274    10  10   7   1
     -0.0003247469    10  10   7   3
      0.1077089169    10  10   7   7
      0.0939229655    10  10   8   8
      0.0939229655    10  10   9   9
     -0.0001470374    10  10  10   2
     -0.0093849536    10  10  10   4
      0.1027576696    10  10  10  10
     -4.9361869991     1   1   0   0
     -4.9362241788     2   2   0   0
      0.1169522838     3   1   0   0
      0.0000000116     3   2   0   0
     -1.3869595504     3   3   0   0
      0.0000000076     4   1   0   0
     -0.0769759584     4   2   0   0
     -0.9159909333     4   4   0   0
     -0.8280127058     5   5   0   0
     -0.8280127058     6   6   0   0
      0.0039144612     7   1   0   0
      0.0000000004     7   2   0   0
     -0.1279684312     7   3   0   0
     -0.7629225354     7   7   0   0
     -0.6411335493     8   8   0   0
     -0.6411335493     9   9   0   0
     -0.0000000071    10   1   0   0
      0.0714461395    10   2   0   0
      0.2775448441    10   4   0   0
     -0.6895859493    10  10   0   0

 Parallel integral file used       9 records with       0 large values


 Task  times  cpu:      744.9s     wall:      749.4s


                                NWChem Input Module
                                -------------------


 Summary of allocated global arrays
-----------------------------------
  No active global arrays



                         GA Statistics for process    0
                         ------------------------------

       create   destroy   get      put      acc     scatter   gather  read&inc
calls: 2041     2041     3.19e+06 1.80e+04 1.28e+05    0        0     1.71e+05 
number of processes/call 1.00e+00 1.00e+00 1.00e+00 0.00e+00 0.00e+00
bytes total:             1.24e+10 9.88e+07 2.18e+08 0.00e+00 0.00e+00 1.37e+06
bytes remote:            0.00e+00 0.00e+00 0.00e+00 0.00e+00 0.00e+00 0.00e+00
Max memory consumed for GA by this process: 73662736 bytes

MA_summarize_allocated_blocks: starting scan ...
MA_summarize_allocated_blocks: scan completed: 0 heap blocks, 0 stack blocks
MA usage statistics:

	allocation statistics:
					      heap	     stack
					      ----	     -----
	current number of blocks	         0	         0
	maximum number of blocks	        17	        40
	current total bytes		         0	         0
	maximum total bytes		  28329720	8298725256
	maximum total K-bytes		     28330	   8298726
	maximum total M-bytes		        29	      8299


                                     CITATION
                                     --------
                Please cite the following reference when publishing
                           results obtained with NWChem:

                 M. Valiev, E.J. Bylaska, N. Govind, K. Kowalski,
              T.P. Straatsma, H.J.J. van Dam, D. Wang, J. Nieplocha,
                        E. Apra, T.L. Windus, W.A. de Jong
                 "NWChem: a comprehensive and scalable open-source
                  solution for large scale molecular simulations"
                      Comput. Phys. Commun. 181, 1477 (2010)
                           doi:10.1016/j.cpc.2010.04.018

                                      AUTHORS
                                      -------
          E. Apra, E. J. Bylaska, W. A. de Jong, N. Govind, K. Kowalski,
       T. P. Straatsma, M. Valiev, H. J. J. van Dam, D. Wang, T. L. Windus,
        J. Hammond, J. Autschbach, K. Bhaskaran-Nair, J. Brabec, K. Lopata,
    S. A. Fischer, S. Krishnamoorthy, M. Jacquelin, W. Ma, M. Klemm, O. Villa,
      Y. Chen, V. Anisimov, F. Aquino, S. Hirata, M. T. Hackler, V. Konjkov,
            D. Mejia-Rodriguez, T. Risthaus, M. Malagoli, A. Marenich,
   A. Otero-de-la-Roza, J. Mullin, P. Nichols, R. Peverati, J. Pittner, Y. Zhao,
        P.-D. Fan, A. Fonari, M. J. Williamson, R. J. Harrison, J. R. Rehr,
      M. Dupuis, D. Silverstein, D. M. A. Smith, J. Nieplocha, V. Tipparaju,
    M. Krishnan, B. E. Van Kuiken, A. Vazquez-Mayagoitia, L. Jensen, M. Swart,
      Q. Wu, T. Van Voorhis, A. A. Auer, M. Nooijen, L. D. Crosby, E. Brown,
      G. Cisneros, G. I. Fann, H. Fruchtl, J. Garza, K. Hirao, R. A. Kendall,
      J. A. Nichols, K. Tsemekhman, K. Wolinski, J. Anchell, D. E. Bernholdt,
      P. Borowski, T. Clark, D. Clerc, H. Dachsel, M. J. O. Deegan, K. Dyall,
    D. Elwood, E. Glendening, M. Gutowski, A. C. Hess, J. Jaffe, B. G. Johnson,
     J. Ju, R. Kobayashi, R. Kutteh, Z. Lin, R. Littlefield, X. Long, B. Meng,
      T. Nakajima, S. Niu, L. Pollack, M. Rosing, K. Glaesemann, G. Sandrone,
      M. Stave, H. Taylor, G. Thomas, J. H. van Lenthe, A. T. Wong, Z. Zhang.

 Total times  cpu:      744.9s     wall:      749.4s
