 argument  1 = originalHF.nw
  NWChem w/ OpenMP: maximum threads =    4



============================== echo of input deck ==============================
start tce_hf_0.87096

echo
memory total 6 gb
print high

geometry units angstrom
symmetry c1
H  0.0000000  0.0000  0.87096
F  0.0000000  0.0000  0.00000
end


basis spherical
H library cc-pvdz
F library cc-pvdz
end

scf
thresh 1.0e-10
tol2e 1.0e-10
singlet
rhf
end

tce
2eorb
2emet 13
thresh 1.0d-8
ccsd
end

set tce:qducc T
set tce:nactv 5

task tce energy

================================================================================


                                         
                                         


              Northwest Computational Chemistry Package (NWChem) 6.8
              ------------------------------------------------------


                    Environmental Molecular Sciences Laboratory
                       Pacific Northwest National Laboratory
                                Richland, WA 99352

                              Copyright (c) 1994-2018
                       Pacific Northwest National Laboratory
                            Battelle Memorial Institute

             NWChem is an open-source computational chemistry package
                        distributed under the terms of the
                      Educational Community License (ECL) 2.0
             A copy of the license is included with this distribution
                              in the LICENSE.TXT file

                                  ACKNOWLEDGMENT
                                  --------------

            This software and its documentation were developed at the
            EMSL at Pacific Northwest National Laboratory, a multiprogram
            national laboratory, operated for the U.S. Department of Energy
            by Battelle under Contract Number DE-AC05-76RL01830. Support
            for this work was provided by the Department of Energy Office
            of Biological and Environmental Research, Office of Basic
            Energy Sciences, and the Office of Advanced Scientific Computing.


           Job information
           ---------------

    hostname        = WE27583
    program         = /Users/lamm799/nwchem/bin/MACX64/nwchem
    date            = Tue Jul 30 17:21:57 2019

    compiled        = Mon_Jul_15_13:12:43_2019
    source          = /Users/lamm799/nwchem
    nwchem branch   = Development
    nwchem revision = nwchem_on_git-975-g459e4567d
    ga revision     = 5.7.0
    use scalapack   = F
    input           = originalHF.nw
    prefix          = tce_hf_0.87096.
    data base       = ./tce_hf_0.87096.db
    status          = startup
    nproc           =        1
    time left       =     -1s



           Memory information
           ------------------

    heap     =  201326588 doubles =   1536.0 Mbytes
    stack    =  201326593 doubles =   1536.0 Mbytes
    global   =  402653184 doubles =   3072.0 Mbytes (distinct from heap & stack)
    total    =  805306365 doubles =   6144.0 Mbytes
    verify   = yes
    hardfail = no 


           Directory information
           ---------------------

  0 permanent = .
  0 scratch   = .




                                NWChem Input Module
                                -------------------



 Scaling coordinates for geometry "geometry" by  1.889725989
 (inverse scale =  0.529177249)

 Turning off AUTOSYM since
 SYMMETRY directive was detected!

     MOLECULAR POINT GROUP NUMBER =  1     SCHOENFLIES SYMBOL = C1        

                --------------- GROUP GENERATORS ---------------

                      1 GENERATORS USED TO FORM THE GROUP

                         PT fold Rotoinversion Operator
                     1.000000  0.000000  0.000000  0.000000
                     0.000000  1.000000  0.000000  0.000000
                     0.000000  0.000000  1.000000  0.000000


The   1 symmetry operators (excl. E) are as follows:



                    ---------- FULL LISTING OF GROUP ----------

                  MATRIX REPRESENTATIONS OF THE GROUP OPERATORS

     EXCLUDING THE IDENTITY OPERATOR THERE ARE  1 OPERATORS IN THIS GROUP

                         pt fold Rotoinversion Operator
                     1.000000  0.000000  0.000000  0.000000
                     0.000000  1.000000  0.000000  0.000000
                     0.000000  0.000000  1.000000  0.000000


                  <<< SYMMETRY OPERATION/ATOM MAPPING BUILT >>>
      Symmetry information
      --------------------

 Group name             C1        
 Group number              1
 Group order               1
 No. of unique centers     2



                  Character table for group C1      

                  1e     
        a          1.000

      Symmetry unique atoms

     1    2

      Mapping of centers


      Group operations



          ------
          auto-z
          ------
  no constraints, skipping    0.0000000000000000     
 Imposing constraints:   iter = 1  dqmax = 0.0D+00
  no constraints, skipping    0.0000000000000000     


                             Geometry "geometry" -> ""
                             -------------------------

 Output coordinates in angstroms (scale by  1.889725989 to convert to a.u.)

  No.       Tag          Charge          X              Y              Z
 ---- ---------------- ---------- -------------- -------------- --------------
    1 H                    1.0000     0.00000000     0.00000000     0.78386400
    2 F                    9.0000     0.00000000     0.00000000    -0.08709600

      Atomic Mass 
      ----------- 

      H                  1.007825
      F                 18.998400


 Effective nuclear repulsion energy (a.u.)       5.4682135127

            Nuclear Dipole moment (a.u.) 
            ----------------------------
        X                 Y               Z
 ---------------- ---------------- ----------------
     0.0000000000     0.0000000000    -0.0000000000



                                Z-matrix (autoz)
                                -------- 

 Units are Angstrom for bonds and degrees for angles

      Type          Name      I     J     K     L     M      Value
      ----------- --------  ----- ----- ----- ----- ----- ----------
    1 Stretch                  1     2                       0.87096


            XYZ format geometry
            -------------------
     2
 geometry
 H                     0.00000000     0.00000000     0.78386400
 F                     0.00000000     0.00000000    -0.08709600

 ==============================================================================
                                internuclear distances
 ------------------------------------------------------------------------------
       center one      |      center two      | atomic units |  angstroms
 ------------------------------------------------------------------------------
    2 F                |   1 H                |     1.64588  |     0.87096
 ------------------------------------------------------------------------------
                         number of included internuclear distances:          1
 ==============================================================================



                      Basis "ao basis" -> "" (spherical)
                      -----
  H (Hydrogen)
  ------------
            Exponent  Coefficients 
       -------------- ---------------------------------------------------------
  1 S  1.30100000E+01  0.019685
  1 S  1.96200000E+00  0.137977
  1 S  4.44600000E-01  0.478148

  2 S  1.22000000E-01  1.000000

  3 P  7.27000000E-01  1.000000

  F (Fluorine)
  ------------
            Exponent  Coefficients 
       -------------- ---------------------------------------------------------
  1 S  1.47100000E+04  0.000721
  1 S  2.20700000E+03  0.005553
  1 S  5.02800000E+02  0.028267
  1 S  1.42600000E+02  0.106444
  1 S  4.64700000E+01  0.286814
  1 S  1.67000000E+01  0.448641
  1 S  6.35600000E+00  0.264761
  1 S  1.31600000E+00  0.015333

  2 S  1.47100000E+04 -0.000165
  2 S  2.20700000E+03 -0.001308
  2 S  5.02800000E+02 -0.006495
  2 S  1.42600000E+02 -0.026691
  2 S  4.64700000E+01 -0.073690
  2 S  1.67000000E+01 -0.170776
  2 S  6.35600000E+00 -0.112327
  2 S  1.31600000E+00  0.562814

  3 S  3.89700000E-01  1.000000

  4 P  2.26700000E+01  0.044878
  4 P  4.97700000E+00  0.235718
  4 P  1.34700000E+00  0.508521

  5 P  3.47100000E-01  1.000000

  6 D  1.64000000E+00  1.000000



 Summary of "ao basis" -> "" (spherical)
 ------------------------------------------------------------------------------
       Tag                 Description            Shells   Functions and Types
 ---------------- ------------------------------  ------  ---------------------
 H                          cc-pvdz                  3        5   2s1p
 F                          cc-pvdz                  6       14   3s2p1d



 Setting fock-build task_bf   :      -1
                    maxquartet:   10000
                    maxeri    :  129600
                    maxscr    :       0
                    intacc    : 0.0D+00
                    denscreen : T
                    dentol    : 1.0D-06

                                 NWChem SCF Module
                                 -----------------



  ao basis        = "ao basis"
  functions       =    19
  atoms           =     2
  closed shells   =     5
  open shells     =     0
  charge          =   0.00
  wavefunction    = RHF 
  input vectors   = atomic
  output vectors  = ./tce_hf_0.87096.movecs
  use symmetry    = F
  symmetry adapt  = F


 Summary of "ao basis" -> "ao basis" (spherical)
 ------------------------------------------------------------------------------
       Tag                 Description            Shells   Functions and Types
 ---------------- ------------------------------  ------  ---------------------
 H                          cc-pvdz                  3        5   2s1p
 F                          cc-pvdz                  6       14   3s2p1d




                         Geometry "geometry" -> "geometry"
                         ---------------------------------

 Output coordinates in angstroms (scale by  1.889725989 to convert to a.u.)

  No.       Tag          Charge          X              Y              Z
 ---- ---------------- ---------- -------------- -------------- --------------
    1 H                    1.0000     0.00000000     0.00000000     0.78386400
    2 F                    9.0000     0.00000000     0.00000000    -0.08709600

      Atomic Mass 
      ----------- 

      H                  1.007825
      F                 18.998400


 Effective nuclear repulsion energy (a.u.)       5.4682135127

            Nuclear Dipole moment (a.u.) 
            ----------------------------
        X                 Y               Z
 ---------------- ---------------- ----------------
     0.0000000000     0.0000000000    -0.0000000000



                                Z-matrix (autoz)
                                -------- 

 Units are Angstrom for bonds and degrees for angles

      Type          Name      I     J     K     L     M      Value
      ----------- --------  ----- ----- ----- ----- ----- ----------
    1 Stretch                  1     2                       0.87096


                      Basis "ao basis" -> "ao basis" (spherical)
                      -----
  H (Hydrogen)
  ------------
            Exponent  Coefficients 
       -------------- ---------------------------------------------------------
  1 S  1.30100000E+01  0.019685
  1 S  1.96200000E+00  0.137977
  1 S  4.44600000E-01  0.478148

  2 S  1.22000000E-01  1.000000

  3 P  7.27000000E-01  1.000000

  F (Fluorine)
  ------------
            Exponent  Coefficients 
       -------------- ---------------------------------------------------------
  1 S  1.47100000E+04  0.000721
  1 S  2.20700000E+03  0.005553
  1 S  5.02800000E+02  0.028267
  1 S  1.42600000E+02  0.106444
  1 S  4.64700000E+01  0.286814
  1 S  1.67000000E+01  0.448641
  1 S  6.35600000E+00  0.264761
  1 S  1.31600000E+00  0.015333

  2 S  1.47100000E+04 -0.000165
  2 S  2.20700000E+03 -0.001308
  2 S  5.02800000E+02 -0.006495
  2 S  1.42600000E+02 -0.026691
  2 S  4.64700000E+01 -0.073690
  2 S  1.67000000E+01 -0.170776
  2 S  6.35600000E+00 -0.112327
  2 S  1.31600000E+00  0.562814

  3 S  3.89700000E-01  1.000000

  4 P  2.26700000E+01  0.044878
  4 P  4.97700000E+00  0.235718
  4 P  1.34700000E+00  0.508521

  5 P  3.47100000E-01  1.000000

  6 D  1.64000000E+00  1.000000



    Basis function labels
    ---------------------
       No.  Atm El Type
       ---  --- -- ----
        1    1 H  s          
        2    1 H  s          
        3    1 H  px         
        4    1 H  py         
        5    1 H  pz         
        6    2 F  s          
        7    2 F  s          
        8    2 F  s          
        9    2 F  px         
       10    2 F  py         
       11    2 F  pz         
       12    2 F  px         
       13    2 F  py         
       14    2 F  pz         
       15    2 F  d -2       
       16    2 F  d -1       
       17    2 F  d  0       
       18    2 F  d  1       
       19    2 F  d  2       

 Schwarz integral screening summary 
 ---------------------------------- 

        No. of atom pairs =       3
       No. of shell pairs =      45

 Atomic screening 

   value      no.     value      no.     value      no.     value      no.   
  -------- ------    -------- ------    -------- ------    -------- ------   
  0.00D+00      0    1.00D-13      0    1.00D-12      0    1.00D-11      0
  1.00D-10      0    1.00D-09      0    1.00D-08      0    1.00D-07      0
  1.00D-06      0    1.00D-05      0    1.00D-04      0    1.00D-03      0
  1.00D-02      0    1.00D-01      0    1.00D+00      3    1.00D+01      0


 Shell screening 

   value      no.     value      no.     value      no.     value      no.   
  -------- ------    -------- ------    -------- ------    -------- ------   
  0.00D+00      0    1.00D-13      0    1.00D-12      0    1.00D-11      0
  1.00D-10      0    1.00D-09      0    1.00D-08      0    1.00D-07      0
  1.00D-06      0    1.00D-05      0    1.00D-04      0    1.00D-03      0
  1.00D-02      0    1.00D-01     12    1.00D+00     33    1.00D+01      0



 Forming initial guess at       0.1s


      Superposition of Atomic Density Guess
      -------------------------------------

 Sum of atomic energies:         -99.88314519

      Non-variational initial energy
      ------------------------------

 Total energy =     -99.913245
 1-e energy   =    -150.077471
 2-e energy   =      44.696012
 HOMO         =      -0.647737
 LUMO         =       0.124594


 Setting fock-build task_bf   :      -1
                    maxquartet:   10000
                    maxeri    :  129600
                    maxscr    :       0
                    intacc    : 0.0D+00
                    denscreen : T
                    dentol    : 1.0D-06


 Wrote molecular orbitals to ./tce_hf_0.87096.movecs


 Starting SCF solution at       0.1s

 ready to solve ...                    0


 ----------------------------------------------
         Quadratically convergent ROHF

 Convergence threshold     :          1.000E-10
 Maximum no. of iterations :           30
 Final Fock-matrix accuracy:          1.000E-10
 ----------------------------------------------

   0: nuse=   1(   0.9) avail=   434876Mb (out of   434876Mb) on .

 #quartets = 1.035D+03 #integrals = 4.841D+03 #direct =  0.0% #cached =100.0%


 Integral file          = ./tce_hf_0.87096.aoints.0
 Record size in doubles =  65536        No. of integs per rec  =  43688
 Max. records in memory =      2        Max. records in file   = 826263
 No. of bits per label  =      8        No. of bits per value  =     64


 Wrote rohf: cfock to ./tce_hf_0.87096.cfock


              iter       energy          gnorm     gmax       time
             ----- ------------------- --------- --------- --------
                 1      -99.9953757831  7.15D-01  3.77D-01      0.1

            ----- linear solve (tol: 1.0E-02 prod-acc: 8.5E-09) -----

               iter nbas    rnorm     rnorm-scal   ratio     time
               ---- ---- ----------- ----------- --------- -------
 rohf_wrap: in g_x =    1              0.71462379
 rohf_wrap: out g_x =    1              0.08756449
                  1    1  1.0491E-15  1.4681E-15    0.0000     0.1

                              ----- Line search ------

        step       energy         lsg     num-lsg   num-lsh   lsrat    time
      ------- ---------------- --------- --------- --------- ------- --------
       0.0000     -99.99537578 -5.81D-02  0.00D+00  0.00D+00 0.0D+00      0.1

 Wrote rohf: cfock to ./tce_hf_0.87096.cfock

       1.0000    -100.01431397  2.09D-02  2.06D-02  7.90D-02 3.6D-01      0.1

 Wrote rohf: cfock to ./tce_hf_0.87096.cfock

       0.7355    -100.01702431 -3.70D-04 -3.89D-04  8.04D-02 6.4D-03      0.1

              iter       energy          gnorm     gmax       time
             ----- ------------------- --------- --------- --------
                 2     -100.0170243071  1.51D-01  6.06D-02      0.1

            ----- linear solve (tol: 1.0E-01 prod-acc: 1.8E-08) -----

               iter nbas    rnorm     rnorm-scal   ratio     time
               ---- ---- ----------- ----------- --------- -------
 rohf_wrap: in g_x =    1              0.15130528
 rohf_wrap: out g_x =    1              0.01767493
                  1    1  4.6699E-02  3.0864E-01    0.0000     0.2
 rohf_wrap: in g_x =    1              0.04669904
 rohf_wrap: out g_x =    1              0.00623713
                  2    2  1.1913E-02  7.8737E-02    0.2551     0.2

                              ----- Line search ------

        step       energy         lsg     num-lsg   num-lsh   lsrat    time
      ------- ---------------- --------- --------- --------- ------- --------
       0.0000    -100.01702431 -2.74D-03  0.00D+00  0.00D+00 0.0D+00      0.2

 Wrote rohf: cfock to ./tce_hf_0.87096.cfock

       1.0000    -100.01841483 -4.19D-05 -4.11D-05  2.70D-03 1.5D-02      0.2

              iter       energy          gnorm     gmax       time
             ----- ------------------- --------- --------- --------
                 3     -100.0184148273  1.20D-02  4.65D-03      0.2

            ----- linear solve (tol: 1.2E-02 prod-acc: 1.7E-10) -----

               iter nbas    rnorm     rnorm-scal   ratio     time
               ---- ---- ----------- ----------- --------- -------
 rohf_wrap: in g_x =    1              0.01198518
 rohf_wrap: out g_x =    1              0.00138221
                  1    1  3.4103E-03  2.8455E-01    0.0000     0.2
 rohf_wrap: in g_x =    1              0.00341034
 rohf_wrap: out g_x =    1              0.00053305
                  2    2  1.1068E-03  9.2344E-02    0.3245     0.2
 rohf_wrap: in g_x =    1              0.00110675
 rohf_wrap: out g_x =    1              0.00013957
                  3    3  1.8850E-04  1.5728E-02    0.1703     0.2
 rohf_wrap: in g_x =    1              0.00018850
 rohf_wrap: out g_x =    1              0.00002180
                  4    4  1.7179E-05  1.4334E-03    0.0911     0.2

                              ----- Line search ------

        step       energy         lsg     num-lsg   num-lsh   lsrat    time
      ------- ---------------- --------- --------- --------- ------- --------
       0.0000    -100.01841483 -2.02D-05  0.00D+00  0.00D+00 0.0D+00      0.2

 Wrote rohf: cfock to ./tce_hf_0.87096.cfock

       1.0000    -100.01842495 -7.87D-09 -7.16D-09  2.02D-05 3.9D-04      0.2

              iter       energy          gnorm     gmax       time
             ----- ------------------- --------- --------- --------
                 4     -100.0184249522  1.92D-05  9.26D-06      0.2

            ----- linear solve (tol: 1.9E-05 prod-acc: 4.4E-16) -----

               iter nbas    rnorm     rnorm-scal   ratio     time
               ---- ---- ----------- ----------- --------- -------
 rohf_wrap: in g_x =    1              0.00001920
 rohf_wrap: out g_x =    1              0.00000275
                  1    1  4.8399E-06  2.5205E-01    0.0000     0.2
 rohf_wrap: in g_x =    1              0.00000484
 rohf_wrap: out g_x =    1              0.00000081
                  2    2  1.1616E-06  6.0495E-02    0.2400     0.2
 rohf_wrap: in g_x =    1              0.00000116
 rohf_wrap: out g_x =    1              0.00000016
                  3    3  2.1975E-07  1.1444E-02    0.1892     0.2
 rohf_wrap: in g_x =    1              0.00000022
 rohf_wrap: out g_x =    1              0.00000003
                  4    4  5.2003E-08  2.7081E-03    0.2366     0.2
 rohf_wrap: in g_x =    1              0.00000005
 rohf_wrap: out g_x =    1              0.00000001
                  5    5  3.9803E-09  2.0728E-04    0.0765     0.2
 rohf_wrap: in g_x =    1              0.00000000
 rohf_wrap: out g_x =    1              0.00000000
                  6    6  4.0752E-10  2.1222E-05    0.1024     0.2
 rohf_wrap: in g_x =    1              0.00000000
 rohf_wrap: out g_x =    1              0.00000000
                  7    7  2.4575E-11  1.2798E-06    0.0603     0.2

                              ----- Line search ------

        step       energy         lsg     num-lsg   num-lsh   lsrat    time
      ------- ---------------- --------- --------- --------- ------- --------
       0.0000    -100.01842495 -5.89D-11  0.00D+00  0.00D+00 0.0D+00      0.2

 Wrote rohf: cfock to ./tce_hf_0.87096.cfock

       1.0000    -100.01842495 -2.15D-17 -1.61D-13  5.89D-11 3.7D-07      0.2

              iter       energy          gnorm     gmax       time
             ----- ------------------- --------- --------- --------
                 5     -100.0184249522  4.15D-11  1.73D-11      0.2

 Wrote molecular orbitals to ./tce_hf_0.87096.movecs



       Final RHF  results 
       ------------------ 

         Total SCF energy =   -100.018424952211
      One-electron energy =   -151.150809440175
      Two-electron energy =     45.664170975291
 Nuclear repulsion energy =      5.468213512673

        Time for solution =      0.1s


             Final eigenvalues
             -----------------

              1      
    1  -26.2772
    2   -1.6009
    3   -0.7658
    4   -0.6337
    5   -0.6337
    6    0.1931
    7    0.8587
    8    1.4010
    9    1.4261
   10    1.4261
   11    1.6008
   12    1.6008
   13    2.1295
   14    2.6349
   15    3.9995
   16    3.9995
   17    4.3272
   18    4.3272
   19    5.1217

                       ROHF Final Molecular Orbital Analysis
                       -------------------------------------

 Vector    1  Occ=2.000000D+00  E=-2.627717D+01
              MO Center= -7.9D-20, -3.8D-19, -8.7D-02, r^2= 1.2D-02
   Bfn.  Coefficient  Atom+Function         Bfn.  Coefficient  Atom+Function  
  ----- ------------  ---------------      ----- ------------  ---------------
     6      1.000680  2 F  s          

 Vector    2  Occ=2.000000D+00  E=-1.600939D+00
              MO Center= -6.5D-18, -1.5D-17,  4.2D-02, r^2= 3.6D-01
   Bfn.  Coefficient  Atom+Function         Bfn.  Coefficient  Atom+Function  
  ----- ------------  ---------------      ----- ------------  ---------------
     7      0.478300  2 F  s                  8      0.458151  2 F  s          
     1      0.200205  1 H  s          

 Vector    3  Occ=2.000000D+00  E=-7.657733D-01
              MO Center= -5.1D-17, -7.6D-18, -1.1D-02, r^2= 5.4D-01
   Bfn.  Coefficient  Atom+Function         Bfn.  Coefficient  Atom+Function  
  ----- ------------  ---------------      ----- ------------  ---------------
    11      0.559903  2 F  pz                 1      0.399485  1 H  s          
     8     -0.317608  2 F  s                 14      0.287147  2 F  pz         

 Vector    4  Occ=2.000000D+00  E=-6.336760D-01
              MO Center=  1.9D-17,  4.1D-17, -6.9D-02, r^2= 4.4D-01
   Bfn.  Coefficient  Atom+Function         Bfn.  Coefficient  Atom+Function  
  ----- ------------  ---------------      ----- ------------  ---------------
    10      0.661637  2 F  py                13      0.471326  2 F  py         

 Vector    5  Occ=2.000000D+00  E=-6.336760D-01
              MO Center=  6.8D-17,  8.0D-18, -6.9D-02, r^2= 4.4D-01
   Bfn.  Coefficient  Atom+Function         Bfn.  Coefficient  Atom+Function  
  ----- ------------  ---------------      ----- ------------  ---------------
     9      0.661637  2 F  px                12      0.471326  2 F  px         

 Vector    6  Occ=0.000000D+00  E= 1.930903D-01
              MO Center=  6.5D-18, -1.4D-17,  9.8D-01, r^2= 2.1D+00
   Bfn.  Coefficient  Atom+Function         Bfn.  Coefficient  Atom+Function  
  ----- ------------  ---------------      ----- ------------  ---------------
     2      1.303912  1 H  s                  8     -0.704343  2 F  s          
    14     -0.317186  2 F  pz                11     -0.199427  2 F  pz         

 Vector    7  Occ=0.000000D+00  E= 8.586732D-01
              MO Center= -3.8D-17,  2.0D-17,  7.7D-01, r^2= 9.8D-01
   Bfn.  Coefficient  Atom+Function         Bfn.  Coefficient  Atom+Function  
  ----- ------------  ---------------      ----- ------------  ---------------
     1      1.249117  1 H  s                  2     -0.859261  1 H  s          
     5      0.381609  1 H  pz                11     -0.378002  2 F  pz         
    14     -0.200581  2 F  pz         

 Vector    8  Occ=0.000000D+00  E= 1.401005D+00
              MO Center=  3.8D-16, -1.1D-16, -4.9D-01, r^2= 9.1D-01
   Bfn.  Coefficient  Atom+Function         Bfn.  Coefficient  Atom+Function  
  ----- ------------  ---------------      ----- ------------  ---------------
    14      1.661411  2 F  pz                 1     -1.185640  1 H  s          
     8      0.704989  2 F  s                 11     -0.625451  2 F  pz         
     5      0.484460  1 H  pz                 7      0.207319  2 F  s          

 Vector    9  Occ=0.000000D+00  E= 1.426081D+00
              MO Center= -6.5D-17,  1.3D-16,  1.1D-01, r^2= 8.6D-01
   Bfn.  Coefficient  Atom+Function         Bfn.  Coefficient  Atom+Function  
  ----- ------------  ---------------      ----- ------------  ---------------
    10      0.803969  2 F  py                13     -0.755234  2 F  py         
     9     -0.397413  2 F  px                12      0.373323  2 F  px         
     4     -0.285273  1 H  py         

 Vector   10  Occ=0.000000D+00  E= 1.426081D+00
              MO Center= -2.0D-16, -1.0D-16,  1.1D-01, r^2= 8.6D-01
   Bfn.  Coefficient  Atom+Function         Bfn.  Coefficient  Atom+Function  
  ----- ------------  ---------------      ----- ------------  ---------------
     9      0.803969  2 F  px                12     -0.755234  2 F  px         
    10      0.397413  2 F  py                13     -0.373323  2 F  py         
     3     -0.285273  1 H  px         

 Vector   11  Occ=0.000000D+00  E= 1.600814D+00
              MO Center=  1.4D-17,  1.4D-17,  4.6D-01, r^2= 9.4D-01
   Bfn.  Coefficient  Atom+Function         Bfn.  Coefficient  Atom+Function  
  ----- ------------  ---------------      ----- ------------  ---------------
     4      1.030004  1 H  py                13     -0.784809  2 F  py         
    10      0.264010  2 F  py                 3      0.150715  1 H  px         

 Vector   12  Occ=0.000000D+00  E= 1.600814D+00
              MO Center= -4.9D-18, -1.1D-17,  4.6D-01, r^2= 9.4D-01
   Bfn.  Coefficient  Atom+Function         Bfn.  Coefficient  Atom+Function  
  ----- ------------  ---------------      ----- ------------  ---------------
     3      1.030004  1 H  px                12     -0.784809  2 F  px         
     9      0.264010  2 F  px                 4     -0.150715  1 H  py         

 Vector   13  Occ=0.000000D+00  E= 2.129457D+00
              MO Center= -1.7D-16,  7.4D-17,  9.6D-02, r^2= 9.8D-01
   Bfn.  Coefficient  Atom+Function         Bfn.  Coefficient  Atom+Function  
  ----- ------------  ---------------      ----- ------------  ---------------
     8      2.513904  2 F  s                  7     -1.643094  2 F  s          
     1     -0.800789  1 H  s                 14      0.717819  2 F  pz         
     6     -0.708161  2 F  s                  2     -0.573838  1 H  s          
     5      0.397621  1 H  pz         

 Vector   14  Occ=0.000000D+00  E= 2.634943D+00
              MO Center= -5.1D-17, -1.1D-17,  6.6D-01, r^2= 5.6D-01
   Bfn.  Coefficient  Atom+Function         Bfn.  Coefficient  Atom+Function  
  ----- ------------  ---------------      ----- ------------  ---------------
     5      1.450734  1 H  pz                 8      0.945429  2 F  s          
     1     -0.920579  1 H  s                 11      0.801677  2 F  pz         
     7      0.416693  2 F  s                 14      0.300339  2 F  pz         
     2     -0.240928  1 H  s                  6      0.150448  2 F  s          

 Vector   15  Occ=0.000000D+00  E= 3.999548D+00
              MO Center= -1.5D-17, -2.1D-17, -8.7D-02, r^2= 3.0D-01
   Bfn.  Coefficient  Atom+Function         Bfn.  Coefficient  Atom+Function  
  ----- ------------  ---------------      ----- ------------  ---------------
    19      0.988076  2 F  d  2              15     -0.153969  2 F  d -2       

 Vector   16  Occ=0.000000D+00  E= 3.999548D+00
              MO Center= -9.0D-18,  1.8D-17, -8.7D-02, r^2= 3.0D-01
   Bfn.  Coefficient  Atom+Function         Bfn.  Coefficient  Atom+Function  
  ----- ------------  ---------------      ----- ------------  ---------------
    15      0.988076  2 F  d -2              19      0.153969  2 F  d  2       

 Vector   17  Occ=0.000000D+00  E= 4.327231D+00
              MO Center=  7.1D-18, -1.9D-18, -2.4D-02, r^2= 4.0D-01
   Bfn.  Coefficient  Atom+Function         Bfn.  Coefficient  Atom+Function  
  ----- ------------  ---------------      ----- ------------  ---------------
    16      0.823495  2 F  d -1              18      0.645253  2 F  d  1       
     4     -0.344105  1 H  py                 3      0.269625  1 H  px         
    13      0.161257  2 F  py         

 Vector   18  Occ=0.000000D+00  E= 4.327231D+00
              MO Center=  3.5D-18, -8.2D-18, -2.4D-02, r^2= 4.0D-01
   Bfn.  Coefficient  Atom+Function         Bfn.  Coefficient  Atom+Function  
  ----- ------------  ---------------      ----- ------------  ---------------
    18      0.823495  2 F  d  1              16     -0.645253  2 F  d -1       
     3      0.344105  1 H  px                 4      0.269625  1 H  py         
    12     -0.161257  2 F  px         

 Vector   19  Occ=0.000000D+00  E= 5.121690D+00
              MO Center= -1.5D-18, -6.8D-18, -3.8D-02, r^2= 5.2D-01
   Bfn.  Coefficient  Atom+Function         Bfn.  Coefficient  Atom+Function  
  ----- ------------  ---------------      ----- ------------  ---------------
     1      1.659497  1 H  s                  8     -1.622079  2 F  s          
    17     -1.180913  2 F  d  0              14     -1.051077  2 F  pz         
     5     -0.992332  1 H  pz                11     -0.276751  2 F  pz         
     7      0.235809  2 F  s          


 center of mass
 --------------
 x =   0.00000000 y =   0.00000000 z =  -0.08167564

 moments of inertia (a.u.)
 ------------------
           2.592573616228           0.000000000000           0.000000000000
           0.000000000000           2.592573616228           0.000000000000
           0.000000000000           0.000000000000           0.000000000000

  Mulliken analysis of the total density
  --------------------------------------

   Bfn.    Population  Atom+Function
   ---------------------------------
     1      0.669979    1 H  s          
     2      0.014971    1 H  s          
     3      0.028236    1 H  px         
     4      0.028236    1 H  py         
     5      0.060584    1 H  pz         
     6      2.001333    2 F  s          
     7      0.892463    2 F  s          
     8      0.941982    2 F  s          
     9      1.200044    2 F  px         
    10      1.200044    2 F  py         
    11      0.943179    2 F  pz         
    12      0.771129    2 F  px         
    13      0.771129    2 F  py         
    14      0.471259    2 F  pz         
    15      0.000000    2 F  d -2       
    16      0.000592    2 F  d -1       
    17      0.004251    2 F  d  0       
    18      0.000592    2 F  d  1       
    19      0.000000    2 F  d  2       

    Atom       Charge   Shell Charges
 -----------   ------   -------------------------------------------------------
    1 H    1     0.80   0.67  0.01  0.12
    2 F    9     9.20   2.00  0.89  0.94  3.34  2.01  0.01

       Multipole analysis of the density wrt the origin
       ------------------------------------------------

     L   x y z        total         open         nuclear
     -   - - -        -----         ----         -------
     0   0 0 0     -0.000000      0.000000     10.000000

     1   1 0 0     -0.000000      0.000000      0.000000
     1   0 1 0     -0.000000      0.000000      0.000000
     1   0 0 1      0.730767      0.000000     -0.000000

     2   2 0 0     -3.975103      0.000000      0.000000
     2   1 1 0      0.000000      0.000000      0.000000
     2   1 0 1      0.000000      0.000000      0.000000
     2   0 2 0     -3.975103      0.000000      0.000000
     2   0 1 1      0.000000      0.000000      0.000000
     2   0 0 2     -2.593494      0.000000      2.438016


 Wrote molecular orbitals to ./tce_hf_0.87096.movecs


 Parallel integral file used       1 records with       0 large values


 Read molecular orbitals from ./tce_hf_0.87096.movecs


 Schwarz integral screening summary 
 ---------------------------------- 

        No. of atom pairs =       3
       No. of shell pairs =      45

 Atomic screening 

   value      no.     value      no.     value      no.     value      no.   
  -------- ------    -------- ------    -------- ------    -------- ------   
  0.00D+00      0    1.00D-13      0    1.00D-12      0    1.00D-11      0
  1.00D-10      0    1.00D-09      0    1.00D-08      0    1.00D-07      0
  1.00D-06      0    1.00D-05      0    1.00D-04      0    1.00D-03      0
  1.00D-02      0    1.00D-01      0    1.00D+00      3    1.00D+01      0


 Shell screening 

   value      no.     value      no.     value      no.     value      no.   
  -------- ------    -------- ------    -------- ------    -------- ------   
  0.00D+00      0    1.00D-13      0    1.00D-12      0    1.00D-11      0
  1.00D-10      0    1.00D-09      0    1.00D-08      0    1.00D-07      0
  1.00D-06      0    1.00D-05      0    1.00D-04      0    1.00D-03      0
  1.00D-02      0    1.00D-01     12    1.00D+00     33    1.00D+01      0


                   NWChem Extensible Many-Electron Theory Module
                   ---------------------------------------------

              ======================================================
                   This portion of the program was automatically
                  generated by a Tensor Contraction Engine (TCE).
                  The development of this portion of the program
                 and TCE was supported by US Department of Energy,
                Office of Science, Office of Basic Energy Science.
                      TCE is a product of Battelle and PNNL.
              Please cite: S.Hirata, J.Phys.Chem.A 107, 9887 (2003).
              ======================================================

            General Information
            -------------------
      Number of processors :     1
         Wavefunction type : Restricted Hartree-Fock
          No. of electrons :    10
           Alpha electrons :     5
            Beta electrons :     5
           No. of orbitals :    38
            Alpha orbitals :    19
             Beta orbitals :    19
        Alpha frozen cores :     0
         Beta frozen cores :     0
     Alpha frozen virtuals :     0
      Beta frozen virtuals :     0
         Spin multiplicity : singlet 
    Number of AO functions :    19
       Number of AO shells :     9
        Use of symmetry is : off
      Symmetry adaption is : off
         Schwarz screening : 0.10D-09

          Correlation Information
          -----------------------
          Calculation type : Coupled-cluster singles & doubles                           
   Perturbative correction : none                                                        
            Max iterations :      100
        Residual threshold : 0.10D-07
     T(0) DIIS level shift : 0.00D+00
     L(0) DIIS level shift : 0.00D+00
     T(1) DIIS level shift : 0.00D+00
     L(1) DIIS level shift : 0.00D+00
     T(R) DIIS level shift : 0.00D+00
     T(I) DIIS level shift : 0.00D+00
   CC-T/L Amplitude update :  5-th order DIIS
                I/O scheme : Global Array Library
        L-threshold :  0.10D-07
        EOM-threshold :  0.10D-07
 no EOMCCSD initial starts read in
 TCE RESTART OPTIONS
 READ_INT:   F
 WRITE_INT:  F
 READ_TA:    F
 WRITE_TA:   F
 READ_XA:    F
 WRITE_XA:   F
 READ_IN3:   F
 WRITE_IN3:  F
 SLICE:      F
 D4D5:       F
 quantumc:   F
 qrotation:  F
 qducc:      T
 nacto:                         0
 nrotv:                         0
 nrot:                          0

            Memory Information
            ------------------
          Available GA space size is     402652823 doubles
          Available MA space size is     402651564 doubles

 Maximum block size        32 doubles

 tile_dim =     14

 Block   Spin    Irrep     Size     Offset   Alpha
 -------------------------------------------------
   1    alpha     a      5 doubles       0       1
   2    beta      a      5 doubles       5       1
   3    alpha     a     14 doubles      10       3
   4    beta      a     14 doubles      24       3

 Global array virtual files algorithm will be used

 Parallel file system coherency ......... OK

 Setting fock-build task_bf   :      -1
                    maxquartet:   10000
                    maxeri    :  129600
                    maxscr    :       0
                    intacc    : 0.0D+00
                    denscreen : T
                    dentol    : 1.0D-06

   0: nuse=   1(   0.9) avail=   434876Mb (out of   434876Mb) on .

 #quartets = 1.035D+03 #integrals = 4.841D+03 #direct =  0.0% #cached =100.0%


 Integral file          = ./tce_hf_0.87096.aoints.0
 Record size in doubles =  65536        No. of integs per rec  =  43688
 Max. records in memory =      2        Max. records in file   = 826263
 No. of bits per label  =      8        No. of bits per value  =     64


 Fock matrix recomputed
 1-e file size   =              361
 1-e file name   = ./tce_hf_0.87096.f1
 Cpu & wall time / sec            0.0            0.0
 4-electron integrals stored in orbital form

 v2    file size   =            64311
 4-index algorithm nr.  13 is used
 imaxsize =       30
 imaxsize ichop =        0
 Cpu & wall time / sec            0.1            0.1
 T1-number-of-tasks                    1

 t1 file size   =               70
 t1 file name   = ./tce_hf_0.87096.t1
 t1 file handle =       -998
 T2-number-of-boxes                    2

 t2 file size   =             9800
 t2 file name   = ./tce_hf_0.87096.t2
 t2 file handle =       -996

 CCSD iterations
 -----------------------------------------------------------------
 Iter          Residuum       Correlation     Cpu    Wall    V2*C2
 -----------------------------------------------------------------
    1   0.1001373360440  -0.2017625127476     0.0     0.0     0.0
    2   0.0251317520297  -0.2042549799811     0.0     0.0     0.0
    3   0.0082945475057  -0.2061991719515     0.0     0.0     0.0
    4   0.0030456998317  -0.2066125454330     0.0     0.0     0.0
    5   0.0011534119205  -0.2067641081836     0.0     0.0     0.0
 MICROCYCLE DIIS UPDATE:                    5                    5
    6   0.0001140170377  -0.2068367661758     0.0     0.0     0.0
    7   0.0000411377093  -0.2068445521672     0.0     0.0     0.0
    8   0.0000146088683  -0.2068448931801     0.0     0.0     0.0
    9   0.0000070192761  -0.2068449392930     0.0     0.0     0.0
   10   0.0000031211075  -0.2068450176634     0.0     0.0     0.0
 MICROCYCLE DIIS UPDATE:                   10                    5
   11   0.0000004062873  -0.2068450888702     0.0     0.0     0.0
   12   0.0000001326868  -0.2068450739030     0.0     0.0     0.0
   13   0.0000000491525  -0.2068450763790     0.0     0.0     0.0
   14   0.0000000241806  -0.2068450757090     0.0     0.0     0.0
   15   0.0000000109058  -0.2068450756232     0.0     0.0     0.0
 MICROCYCLE DIIS UPDATE:                   15                    5
   16   0.0000000015013  -0.2068450753773     0.0     0.0     0.0
 -----------------------------------------------------------------
 Iterations converged
 CCSD correlation energy / hartree =        -0.206845075377252
 CCSD total energy / hartree       =      -100.225270027588593

 Singles contributions

 Doubles contributions
 Ground state specification:
 exp(T)|Ref>~(1+T)|Ref>
 ------- a(p)+/a(q) strings ----------

 singles norm

 doubles norm

 Reference string
   1.0000000000000000      :(1a)+ (2a)+ (3a)+ (4a)+ (5a)+ (1b)+ (2b)+ (3b)+ (4b)+ (5b)+ |0>

 Singles strings

 Doubles strings
 -------------------------------------
 enrep_tce =    5.4682135126725493     
  EHF(total)         =      -100.01842495
  Shift (HFtot-HFA)  =         0.00000000
 ALL OCCUPIED ORBITALS ARE ACTIVE IN DUCC --> NO SHIFT
 Number of active orbitals                   10
 Number of active alpha electrons                    5
 Number of active beta electrons                    5
  nos                    10
  nvs                    28
 noas                     5
 nobs                     5
 nvas                    14
 nvbs                    14
 nactv                     5
 From DUCC CCSD corr. ene. -0.20684507537734245     
 From DUCC CCSD corr. ene.-e-part  0.13125898356314775     
 begin_one_electron_integrals
    1    1       -41.0240680693
    1    2         0.7338262754
    1    3        -0.1833462957
    1    6        -0.1673244617
    1    7        -0.1100149865
    1    8         0.1764775492
    2    1         0.7338262754
    2    2        -9.3867058636
    2    3         0.2625953358
    2    6         0.9519969226
    2    7         0.6034430545
    2    8        -0.3196372332
    3    1        -0.1833462957
    3    2         0.2625953358
    3    3        -8.1728154119
    3    6         0.8164815196
    3    7         1.2303328999
    3    8         1.7541297530
    4    4        -8.5036491905
    4    9        -2.2213523527
    4   10        -0.8693819731
    5    5        -8.5036491905
    5    9         0.8693819731
    5   10        -2.2213523527
    6    1        -0.1673244617
    6    2         0.9519969226
    6    3         0.8164815196
    6    6        -3.5352826846
    6    7        -1.1586499137
    6    8        -0.3999073267
    7    1        -0.1100149865
    7    2         0.6034430545
    7    3         1.2303328999
    7    6        -1.1586499137
    7    7        -4.6572086441
    7    8        -0.5333495623
    8    1         0.1764775492
    8    2        -0.3196372332
    8    3         1.7541297530
    8    6        -0.3999073267
    8    7        -0.5333495623
    8    8        -4.8597017434
    9    4        -2.2213523527
    9    5         0.8693819731
    9    9        -5.8809802973
   10    4        -0.8693819731
   10    5        -2.2213523527
   10   10        -5.8809802973
 end_one_electron_integrals
 begin_two_electron_integrals
    1    1    1    1        5.3555889887
    2    1    1    1       -0.5188030781
    2    2    1    1        1.2412376133
    2    1    2    1        0.0805977001
    2    2    2    1       -0.0201333121
    2    2    2    2        0.8799790486
    3    1    1    1        0.1305693826
    3    2    1    1       -0.0868142838
    3    3    1    1        1.1124816474
    3    1    2    1       -0.0167745585
    3    1    2    2        0.0153947029
    3    2    2    1        0.0083922695
    3    2    2    2        0.0197929130
    3    3    2    1       -0.0141686075
    3    3    2    2        0.7998861240
    3    1    3    1        0.0325496714
    3    2    3    1        0.0296593579
    3    2    3    2        0.1624364387
    3    3    3    1       -0.0060469619
    3    3    3    2       -0.0372436183
    3    3    3    3        0.8098763646
    4    4    1    1        1.2208818231
    4    4    2    1       -0.0154121622
    4    4    2    2        0.8418782388
    4    4    3    1        0.0045984352
    4    4    3    2       -0.0373756696
    4    4    3    3        0.7580159693
    4    1    4    1        0.0375345336
    4    2    4    1        0.0383696619
    4    2    4    2        0.1563641270
    4    3    4    1       -0.0094771768
    4    3    4    2       -0.0297052798
    4    3    4    3        0.0419060735
    4    4    4    4        0.8842678446
    5    5    1    1        1.2208818231
    5    5    2    1       -0.0154121622
    5    5    2    2        0.8418782388
    5    5    3    1        0.0045984352
    5    5    3    2       -0.0373756696
    5    5    3    3        0.7580159693
    5    5    4    4        0.8012532336
    5    1    5    1        0.0375345336
    5    2    5    1        0.0383696619
    5    2    5    2        0.1563641270
    5    3    5    1       -0.0094771768
    5    3    5    2       -0.0297052798
    5    3    5    3        0.0419060735
    5    4    5    4        0.0396885879
    5    5    5    5        0.8842678446
    6    1    1    1        0.1283374198
    6    2    1    1       -0.1906736444
    6    3    1    1       -0.1517330123
    6    6    1    1        0.4200019725
    6    1    2    1       -0.0220017535
    6    1    2    2        0.0016902898
    6    2    2    1        0.0044031181
    6    2    2    2       -0.1055229756
    6    3    2    1        0.0018695903
    6    3    2    2       -0.0832240045
    6    6    2    1       -0.0017681316
    6    6    2    2        0.3869343044
    6    1    3    1       -0.0045655337
    6    1    3    2       -0.0116393479
    6    1    3    3        0.0059647369
    6    2    3    1       -0.0107064502
    6    2    3    2       -0.0237918394
    6    2    3    3       -0.0685840559
    6    3    3    1       -0.0031165673
    6    3    3    2        0.0132925799
    6    3    3    3       -0.0724909147
    6    6    3    1        0.0069113500
    6    6    3    2        0.0462173347
    6    6    3    3        0.3745062833
    6    1    4    4        0.0026650510
    6    2    4    4       -0.0927071467
    6    3    4    4       -0.0768861857
    6    4    4    1       -0.0071260103
    6    4    4    2       -0.0185561793
    6    4    4    3       -0.0039843998
    6    6    4    4        0.3643462885
    6    1    5    5        0.0026650510
    6    2    5    5       -0.0927071467
    6    3    5    5       -0.0768861857
    6    5    5    1       -0.0071260103
    6    5    5    2       -0.0185561793
    6    5    5    3       -0.0039843998
    6    6    5    5        0.3643462885
    6    1    6    1        0.0087907774
    6    2    6    1        0.0019059070
    6    2    6    2        0.0338908347
    6    3    6    1        0.0004980184
    6    3    6    2        0.0228616547
    6    3    6    3        0.0312250266
    6    4    6    4        0.0121894535
    6    5    6    5        0.0121894535
    6    6    6    1       -0.0014400734
    6    6    6    2       -0.0119049453
    6    6    6    3        0.0113057516
    6    6    6    6        0.3562363206
    7    1    1    1        0.0856312781
    7    2    1    1       -0.1348406878
    7    3    1    1       -0.2677963731
    7    6    1    1        0.1814475680
    7    7    1    1        0.6583864306
    7    1    2    1       -0.0162833183
    7    1    2    2       -0.0029178077
    7    2    2    1        0.0025003468
    7    2    2    2       -0.0628479145
    7    3    2    1        0.0068565422
    7    3    2    2       -0.0980155345
    7    6    2    1       -0.0026661871
    7    6    2    2        0.1241016045
    7    7    2    1       -0.0039789652
    7    7    2    2        0.5840758689
    7    1    3    1       -0.0149250877
    7    1    3    2       -0.0200316575
    7    1    3    3        0.0087798779
    7    2    3    1       -0.0146283581
    7    2    3    2       -0.0200816315
    7    2    3    3       -0.0053433791
    7    3    3    1        0.0046453434
    7    3    3    2        0.0789937630
    7    3    3    3       -0.0924628292
    7    6    3    1        0.0057509761
    7    6    3    2        0.0275305494
    7    6    3    3        0.1190302170
    7    7    3    1        0.0097870945
    7    7    3    2        0.1007379276
    7    7    3    3        0.5899246495
    7    1    4    4        0.0010404275
    7    2    4    4       -0.0650858453
    7    3    4    4       -0.1128070114
    7    4    4    1       -0.0077340584
    7    4    4    2       -0.0331728856
    7    4    4    3       -0.0077120806
    7    6    4    4        0.1041019817
    7    7    4    4        0.5196201205
    7    1    5    5        0.0010404275
    7    2    5    5       -0.0650858453
    7    3    5    5       -0.1128070114
    7    5    5    1       -0.0077340584
    7    5    5    2       -0.0331728856
    7    5    5    3       -0.0077120806
    7    6    5    5        0.1041019817
    7    7    5    5        0.5196201205
    7    1    6    1        0.0100307376
    7    1    6    2        0.0051474908
    7    1    6    3        0.0012293376
    7    1    6    6       -0.0033270661
    7    2    6    1        0.0038618520
    7    2    6    2        0.0327738166
    7    2    6    3        0.0221323223
    7    2    6    6        0.0015194457
    7    3    6    1       -0.0032586290
    7    3    6    2        0.0272541008
    7    3    6    3        0.0492102796
    7    3    6    6        0.0253477880
    7    4    6    4        0.0098309931
    7    5    6    5        0.0098309931
    7    6    6    1       -0.0008738131
    7    6    6    2       -0.0168067328
    7    6    6    3       -0.0055132196
    7    6    6    6        0.0466828047
    7    7    6    1       -0.0015775460
    7    7    6    2       -0.0285319859
    7    7    6    3        0.0095418093
    7    7    6    6        0.4158906361
    7    1    7    1        0.0145024118
    7    2    7    1        0.0084499017
    7    2    7    2        0.0561476470
    7    3    7    1       -0.0048438283
    7    3    7    2        0.0416493503
    7    3    7    3        0.1268249671
    7    4    7    4        0.0191691339
    7    5    7    5        0.0191691339
    7    6    7    1       -0.0024047931
    7    6    7    2        0.0025243418
    7    6    7    3        0.0129210475
    7    6    7    6        0.0494889070
    7    7    7    1       -0.0039503413
    7    7    7    2        0.0427091367
    7    7    7    3        0.0939143628
    7    7    7    6        0.1365010788
    7    7    7    7        0.7135421461
    8    1    1    1       -0.1330389207
    8    2    1    1        0.0856698522
    8    3    1    1       -0.3797680698
    8    6    1    1        0.0793208469
    8    7    1    1        0.1480309660
    8    8    1    1        0.8230392063
    8    1    2    1        0.0177798353
    8    1    2    2       -0.0136260630
    8    2    2    1       -0.0063403858
    8    2    2    2        0.0172968447
    8    3    2    1        0.0115071110
    8    3    2    2       -0.1695233278
    8    6    2    1       -0.0013095424
    8    6    2    2        0.0439859110
    8    7    2    1       -0.0057454222
    8    7    2    2        0.0344537552
    8    8    2    1       -0.0120947747
    8    8    2    2        0.6036127952
    8    1    3    1       -0.0316318355
    8    1    3    2       -0.0249465504
    8    1    3    3        0.0048498953
    8    2    3    1       -0.0130902941
    8    2    3    2       -0.0444081237
    8    2    3    3        0.0176061874
    8    3    3    1       -0.0002073550
    8    3    3    2       -0.0144987294
    8    3    3    3       -0.1536232282
    8    6    3    1        0.0053909799
    8    6    3    2        0.0335520882
    8    6    3    3        0.0309648060
    8    7    3    1        0.0001067028
    8    7    3    2       -0.0138809883
    8    7    3    3        0.0320543682
    8    8    3    1       -0.0055685077
    8    8    3    2       -0.0619580736
    8    8    3    3        0.6239785044
    8    1    4    4       -0.0035622044
    8    2    4    4        0.0402740456
    8    3    4    4       -0.1488820592
    8    4    4    1        0.0092715855
    8    4    4    2        0.0302543110
    8    4    4    3       -0.0123596099
    8    6    4    4        0.0300511488
    8    7    4    4        0.0363079087
    8    8    4    4        0.5937606605
    8    1    5    5       -0.0035622044
    8    2    5    5        0.0402740456
    8    3    5    5       -0.1488820592
    8    5    5    1        0.0092715855
    8    5    5    2        0.0302543110
    8    5    5    3       -0.0123596099
    8    6    5    5        0.0300511488
    8    7    5    5        0.0363079087
    8    8    5    5        0.5937606605
    8    1    6    1        0.0036980705
    8    1    6    2        0.0092026182
    8    1    6    3        0.0028788282
    8    1    6    6       -0.0057406756
    8    2    6    1        0.0061370917
    8    2    6    2        0.0055955410
    8    2    6    3        0.0063436528
    8    2    6    6        0.0021199951
    8    3    6    1       -0.0034917583
    8    3    6    2        0.0371172953
    8    3    6    3        0.0224631753
    8    3    6    6       -0.0344410491
    8    4    6    4       -0.0019400772
    8    5    6    5       -0.0019400772
    8    6    6    1       -0.0011524312
    8    6    6    2       -0.0102021210
    8    6    6    3        0.0027937734
    8    6    6    6        0.0300416285
    8    7    6    1        0.0017035670
    8    7    6    2       -0.0105392287
    8    7    6    3       -0.0090640821
    8    7    6    6        0.0078774448
    8    8    6    1        0.0051703972
    8    8    6    2       -0.0386647676
    8    8    6    3       -0.0622248084
    8    8    6    6        0.3095321317
    8    1    7    1        0.0135632800
    8    1    7    2        0.0126476897
    8    1    7    3       -0.0032324589
    8    1    7    6       -0.0049131114
    8    1    7    7       -0.0080927084
    8    2    7    1        0.0098013097
    8    2    7    2        0.0046483698
    8    2    7    3       -0.0175383239
    8    2    7    6       -0.0044717616
    8    2    7    7       -0.0091095396
    8    3    7    1       -0.0040803709
    8    3    7    2        0.0124061226
    8    3    7    3        0.0324681071
    8    3    7    6       -0.0337386862
    8    3    7    7       -0.1002760257
    8    4    7    4       -0.0021623938
    8    5    7    5       -0.0021623938
    8    6    7    1       -0.0025271124
    8    6    7    2       -0.0064032934
    8    6    7    3        0.0073790379
    8    6    7    6        0.0141980559
    8    6    7    7        0.0501602120
    8    7    7    1        0.0018623156
    8    7    7    2       -0.0139394807
    8    7    7    3       -0.0325933801
    8    7    7    6        0.0070798554
    8    7    7    7       -0.0052570887
    8    8    7    1        0.0071136206
    8    8    7    2       -0.0078415537
    8    8    7    3       -0.0825293284
    8    8    7    6        0.0711777558
    8    8    7    7        0.4283664612
    8    1    8    1        0.0299244884
    8    2    8    1        0.0114648743
    8    2    8    2        0.0388296312
    8    3    8    1        0.0001117998
    8    3    8    2       -0.0182528573
    8    3    8    3        0.1025251018
    8    4    8    4        0.0193870498
    8    5    8    5        0.0193870498
    8    6    8    1       -0.0044789428
    8    6    8    2        0.0027793308
    8    6    8    3       -0.0291041716
    8    6    8    6        0.0203055689
    8    7    8    1       -0.0003143470
    8    7    8    2        0.0118018935
    8    7    8    3       -0.0261753401
    8    7    8    6        0.0083226200
    8    7    8    7        0.0248251496
    8    8    8    1        0.0039849815
    8    8    8    2       -0.0038575773
    8    8    8    3       -0.0538823871
    8    8    8    6       -0.0097090383
    8    8    8    7        0.0098827299
    8    8    8    8        0.5862337026
    9    4    1    1        0.5059268113
    9    5    1    1       -0.1980071504
    9    9    1    1        1.0577003398
    9    4    2    1       -0.0154768761
    9    4    2    2        0.1953113928
    9    5    2    1        0.0060572637
    9    5    2    2       -0.0764400136
    9    9    2    1       -0.0193388078
    9    9    2    2        0.7040767803
    9    4    3    1        0.0018855364
    9    4    3    2       -0.0362499086
    9    4    3    3        0.1643317640
    9    5    3    1       -0.0007379520
    9    5    3    2        0.0141873112
    9    5    3    3       -0.0643153586
    9    9    3    1        0.0055493353
    9    9    3    2       -0.0036209177
    9    9    3    3        0.6529089646
    9    1    4    1        0.0406523828
    9    1    4    2        0.0375042207
    9    1    4    3       -0.0095804251
    9    2    4    1        0.0207508762
    9    2    4    2        0.0395827148
    9    2    4    3       -0.0165702257
    9    3    4    1       -0.0077744465
    9    3    4    2       -0.0267048996
    9    3    4    3        0.0114518971
    9    4    4    4        0.2147357962
    9    5    4    4       -0.0739560137
    9    6    4    1       -0.0073974722
    9    6    4    2       -0.0368402432
    9    6    4    3       -0.0001446932
    9    7    4    1       -0.0040753791
    9    7    4    2       -0.0114649507
    9    7    4    3       -0.0108424290
    9    8    4    1        0.0073300652
    9    8    4    2        0.0161628565
    9    8    4    3       -0.0237799743
    9    9    4    4        0.7195755182
    9    1    5    1       -0.0159103299
    9    1    5    2       -0.0146782177
    9    1    5    3        0.0037495397
    9    2    5    1       -0.0081213760
    9    2    5    2       -0.0154916885
    9    2    5    3        0.0064851735
    9    3    5    1        0.0030427247
    9    3    5    2        0.0104516324
    9    3    5    3       -0.0044819872
    9    4    5    4       -0.0051641007
    9    4    5    5        0.1889645405
    9    5    5    4        0.0125764949
    9    5    5    5       -0.0840422412
    9    6    5    1        0.0028951864
    9    6    5    2        0.0144183534
    9    6    5    3        0.0000566293
    9    7    5    1        0.0015950019
    9    7    5    2        0.0044870961
    9    7    5    3        0.0042434566
    9    8    5    1       -0.0028688049
    9    8    5    2       -0.0063257394
    9    8    5    3        0.0093068895
    9    9    5    4       -0.0194740676
    9    9    5    5        0.6774391169
    9    1    6    4       -0.0069207651
    9    1    6    5        0.0027086151
    9    2    6    4       -0.0154079221
    9    2    6    5        0.0060302769
    9    3    6    4       -0.0018484028
    9    3    6    5        0.0007234188
    9    4    6    1        0.0037778312
    9    4    6    2       -0.0459401937
    9    4    6    3       -0.0348986106
    9    4    6    6        0.0188246423
    9    5    6    1       -0.0014785490
    9    5    6    2        0.0179798474
    9    5    6    3        0.0136584468
    9    5    6    6       -0.0073674960
    9    6    6    4       -0.0012039479
    9    6    6    5        0.0004711952
    9    7    6    4        0.0051196238
    9    7    6    5       -0.0020036932
    9    8    6    4       -0.0003435624
    9    8    6    5        0.0001344618
    9    9    6    1        0.0040419565
    9    9    6    2       -0.0623377244
    9    9    6    3       -0.0456622401
    9    9    6    6        0.3652555810
    9    1    7    4       -0.0071869209
    9    1    7    5        0.0028127818
    9    2    7    4       -0.0091465538
    9    2    7    5        0.0035797333
    9    3    7    4       -0.0051324127
    9    3    7    5        0.0020086985
    9    4    7    1        0.0029341425
    9    4    7    2       -0.0331869784
    9    4    7    3       -0.0694786453
    9    4    7    6        0.0312620156
    9    4    7    7        0.0535754083
    9    5    7    1       -0.0011483503
    9    5    7    2        0.0129885566
    9    5    7    3        0.0271922109
    9    5    7    6       -0.0122351741
    9    5    7    7       -0.0209680801
    9    6    7    4        0.0093475752
    9    6    7    5       -0.0036584081
    9    7    7    4        0.0035983378
    9    7    7    5       -0.0014082998
    9    8    7    4        0.0046647450
    9    8    7    5       -0.0018256650
    9    9    7    1        0.0021503538
    9    9    7    2       -0.0356199500
    9    9    7    3       -0.0592126183
    9    9    7    6        0.0912108619
    9    9    7    7        0.5102041232
    9    1    8    4        0.0090821279
    9    1    8    5       -0.0035545186
    9    2    8    4        0.0112168759
    9    2    8    5       -0.0043900058
    9    3    8    4       -0.0180039451
    9    3    8    5        0.0070462956
    9    4    8    1       -0.0015092635
    9    4    8    2        0.0237732113
    9    4    8    3       -0.0816012924
    9    4    8    6        0.0106986806
    9    4    8    7        0.0321183333
    9    4    8    8        0.0985418073
    9    5    8    1        0.0005906881
    9    5    8    2       -0.0093042427
    9    5    8    3        0.0319367130
    9    5    8    6       -0.0041871971
    9    5    8    7       -0.0125703155
    9    5    8    8       -0.0385668085
    9    6    8    4       -0.0046209757
    9    6    8    5        0.0018085348
    9    7    8    4        0.0026774207
    9    7    8    5       -0.0010478757
    9    8    8    4        0.0023744770
    9    8    8    5       -0.0009293111
    9    9    8    1       -0.0047734902
    9    9    8    2        0.0299457703
    9    9    8    3       -0.1172385683
    9    9    8    6        0.0339320489
    9    9    8    7        0.0270432925
    9    9    8    8        0.5178756881
    9    1    9    1        0.0495148558
    9    2    9    1        0.0242336696
    9    2    9    2        0.0495544031
    9    3    9    1       -0.0089368271
    9    3    9    2       -0.0054981713
    9    3    9    3        0.0267254097
    9    4    9    4        0.1469239445
    9    5    9    4       -0.0508197286
    9    5    9    5        0.0369643548
    9    6    9    1       -0.0081070581
    9    6    9    2        0.0018673273
    9    6    9    3        0.0094220455
    9    6    9    6        0.0241354777
    9    7    9    1       -0.0044626006
    9    7    9    2       -0.0034395323
    9    7    9    3        0.0042569812
    9    7    9    6        0.0072637700
    9    7    9    7        0.0174851196
    9    8    9    1        0.0084446074
    9    8    9    2        0.0155988259
    9    8    9    3       -0.0041693403
    9    8    9    6        0.0035212986
    9    8    9    7        0.0045863898
    9    8    9    8        0.0237881277
    9    9    9    4        0.1486027063
    9    9    9    5       -0.0581593973
    9    9    9    9        0.6472019081
   10    4    1    1        0.1980071504
   10    5    1    1        0.5059268113
   10   10    1    1        1.0577003398
   10    4    2    1       -0.0060572637
   10    4    2    2        0.0764400136
   10    5    2    1       -0.0154768761
   10    5    2    2        0.1953113928
   10   10    2    1       -0.0193388078
   10   10    2    2        0.7040767803
   10    4    3    1        0.0007379520
   10    4    3    2       -0.0141873112
   10    4    3    3        0.0643153586
   10    5    3    1        0.0018855364
   10    5    3    2       -0.0362499086
   10    5    3    3        0.1643317640
   10   10    3    1        0.0055493353
   10   10    3    2       -0.0036209177
   10   10    3    3        0.6529089646
   10    1    4    1        0.0159103299
   10    1    4    2        0.0146782177
   10    1    4    3       -0.0037495397
   10    2    4    1        0.0081213760
   10    2    4    2        0.0154916885
   10    2    4    3       -0.0064851735
   10    3    4    1       -0.0030427247
   10    3    4    2       -0.0104516324
   10    3    4    3        0.0044819872
   10    4    4    4        0.0840422412
   10    5    4    4        0.1889645405
   10    6    4    1       -0.0028951864
   10    6    4    2       -0.0144183534
   10    6    4    3       -0.0000566293
   10    7    4    1       -0.0015950019
   10    7    4    2       -0.0044870961
   10    7    4    3       -0.0042434566
   10    8    4    1        0.0028688049
   10    8    4    2        0.0063257394
   10    8    4    3       -0.0093068895
   10    9    4    4        0.0194740676
   10   10    4    4        0.6774391169
   10    1    5    1        0.0406523828
   10    1    5    2        0.0375042207
   10    1    5    3       -0.0095804251
   10    2    5    1        0.0207508762
   10    2    5    2        0.0395827148
   10    2    5    3       -0.0165702257
   10    3    5    1       -0.0077744465
   10    3    5    2       -0.0267048996
   10    3    5    3        0.0114518971
   10    4    5    4        0.0131947608
   10    4    5    5        0.0739560137
   10    5    5    4        0.0049221268
   10    5    5    5        0.2147357962
   10    6    5    1       -0.0073974722
   10    6    5    2       -0.0368402432
   10    6    5    3       -0.0001446932
   10    7    5    1       -0.0040753791
   10    7    5    2       -0.0114649507
   10    7    5    3       -0.0108424290
   10    8    5    1        0.0073300652
   10    8    5    2        0.0161628565
   10    8    5    3       -0.0237799743
   10    9    5    4        0.0211567698
   10    9    5    5       -0.0194740676
   10   10    5    4        0.0194740676
   10   10    5    5        0.7195755182
   10    1    6    4       -0.0027086151
   10    1    6    5       -0.0069207651
   10    2    6    4       -0.0060302769
   10    2    6    5       -0.0154079221
   10    3    6    4       -0.0007234188
   10    3    6    5       -0.0018484028
   10    4    6    1        0.0014785490
   10    4    6    2       -0.0179798474
   10    4    6    3       -0.0136584468
   10    4    6    6        0.0073674960
   10    5    6    1        0.0037778312
   10    5    6    2       -0.0459401937
   10    5    6    3       -0.0348986106
   10    5    6    6        0.0188246423
   10    6    6    4       -0.0004711952
   10    6    6    5       -0.0012039479
   10    7    6    4        0.0020036932
   10    7    6    5        0.0051196238
   10    8    6    4       -0.0001344618
   10    8    6    5       -0.0003435624
   10   10    6    1        0.0040419565
   10   10    6    2       -0.0623377244
   10   10    6    3       -0.0456622401
   10   10    6    6        0.3652555810
   10    1    7    4       -0.0028127818
   10    1    7    5       -0.0071869209
   10    2    7    4       -0.0035797333
   10    2    7    5       -0.0091465538
   10    3    7    4       -0.0020086985
   10    3    7    5       -0.0051324127
   10    4    7    1        0.0011483503
   10    4    7    2       -0.0129885566
   10    4    7    3       -0.0271922109
   10    4    7    6        0.0122351741
   10    4    7    7        0.0209680801
   10    5    7    1        0.0029341425
   10    5    7    2       -0.0331869784
   10    5    7    3       -0.0694786453
   10    5    7    6        0.0312620156
   10    5    7    7        0.0535754083
   10    6    7    4        0.0036584081
   10    6    7    5        0.0093475752
   10    7    7    4        0.0014082998
   10    7    7    5        0.0035983378
   10    8    7    4        0.0018256650
   10    8    7    5        0.0046647450
   10   10    7    1        0.0021503538
   10   10    7    2       -0.0356199500
   10   10    7    3       -0.0592126183
   10   10    7    6        0.0912108619
   10   10    7    7        0.5102041232
   10    1    8    4        0.0035545186
   10    1    8    5        0.0090821279
   10    2    8    4        0.0043900058
   10    2    8    5        0.0112168759
   10    3    8    4       -0.0070462956
   10    3    8    5       -0.0180039451
   10    4    8    1       -0.0005906881
   10    4    8    2        0.0093042427
   10    4    8    3       -0.0319367130
   10    4    8    6        0.0041871971
   10    4    8    7        0.0125703155
   10    4    8    8        0.0385668085
   10    5    8    1       -0.0015092635
   10    5    8    2        0.0237732113
   10    5    8    3       -0.0816012924
   10    5    8    6        0.0106986806
   10    5    8    7        0.0321183333
   10    5    8    8        0.0985418073
   10    6    8    4       -0.0018085348
   10    6    8    5       -0.0046209757
   10    7    8    4        0.0010478757
   10    7    8    5        0.0026774207
   10    8    8    4        0.0009293111
   10    8    8    5        0.0023744770
   10   10    8    1       -0.0047734902
   10   10    8    2        0.0299457703
   10   10    8    3       -0.1172385683
   10   10    8    6        0.0339320489
   10   10    8    7        0.0270432925
   10   10    8    8        0.5178756881
   10    4    9    4        0.0508197286
   10    4    9    5        0.0006350459
   10    4    9    9        0.0533229569
   10    5    9    4        0.1093245437
   10    5    9    5       -0.0508197286
   10    5    9    9        0.1362451482
   10    9    9    4        0.0024152608
   10    9    9    5        0.0061712175
   10   10    9    4        0.1362451482
   10   10    9    5       -0.0533229569
   10   10    9    9        0.5932913553
   10    1   10    1        0.0495148558
   10    2   10    1        0.0242336696
   10    2   10    2        0.0495544031
   10    3   10    1       -0.0089368271
   10    3   10    2       -0.0054981713
   10    3   10    3        0.0267254097
   10    4   10    4        0.0369643548
   10    5   10    4        0.0508197286
   10    5   10    5        0.1469239445
   10    6   10    1       -0.0081070581
   10    6   10    2        0.0018673273
   10    6   10    3        0.0094220455
   10    6   10    6        0.0241354777
   10    7   10    1       -0.0044626006
   10    7   10    2       -0.0034395323
   10    7   10    3        0.0042569812
   10    7   10    6        0.0072637700
   10    7   10    7        0.0174851196
   10    8   10    1        0.0084446074
   10    8   10    2        0.0155988259
   10    8   10    3       -0.0041693403
   10    8   10    6        0.0035212986
   10    8   10    7        0.0045863898
   10    8   10    8        0.0237881277
   10    9   10    4        0.0061863407
   10    9   10    5       -0.0024211796
   10    9   10    9        0.0269552764
   10   10   10    4        0.0581593973
   10   10   10    5        0.1486027063
   10   10   10   10        0.6472019081
 end_two_electron_integrals
 fcidump
      5.3555889887     1   1   1   1
     -0.5188030781     2   1   1   1
      0.0805977001     2   1   2   1
      1.2412376133     2   2   1   1
     -0.0201333121     2   2   2   1
      0.8799790486     2   2   2   2
      0.1305693826     3   1   1   1
     -0.0167745585     3   1   2   1
      0.0153947029     3   1   2   2
      0.0325496714     3   1   3   1
     -0.0868142838     3   2   1   1
      0.0083922695     3   2   2   1
      0.0197929130     3   2   2   2
      0.0296593579     3   2   3   1
      0.1624364387     3   2   3   2
      1.1124816474     3   3   1   1
     -0.0141686075     3   3   2   1
      0.7998861240     3   3   2   2
     -0.0060469619     3   3   3   1
     -0.0372436183     3   3   3   2
      0.8098763646     3   3   3   3
      0.0375345336     4   1   4   1
      0.0383696619     4   2   4   1
      0.1563641270     4   2   4   2
     -0.0094771768     4   3   4   1
     -0.0297052798     4   3   4   2
      0.0419060735     4   3   4   3
      1.2208818231     4   4   1   1
     -0.0154121622     4   4   2   1
      0.8418782388     4   4   2   2
      0.0045984352     4   4   3   1
     -0.0373756696     4   4   3   2
      0.7580159693     4   4   3   3
      0.8842678446     4   4   4   4
      0.0375345336     5   1   5   1
      0.0383696619     5   2   5   1
      0.1563641270     5   2   5   2
     -0.0094771768     5   3   5   1
     -0.0297052798     5   3   5   2
      0.0419060735     5   3   5   3
      0.0396885879     5   4   5   4
      1.2208818231     5   5   1   1
     -0.0154121622     5   5   2   1
      0.8418782388     5   5   2   2
      0.0045984352     5   5   3   1
     -0.0373756696     5   5   3   2
      0.7580159693     5   5   3   3
      0.8012532336     5   5   4   4
      0.8842678446     5   5   5   5
      0.1283374198     6   1   1   1
     -0.0220017535     6   1   2   1
      0.0016902898     6   1   2   2
     -0.0045655337     6   1   3   1
     -0.0116393479     6   1   3   2
      0.0059647369     6   1   3   3
      0.0026650510     6   1   4   4
      0.0026650510     6   1   5   5
      0.0087907774     6   1   6   1
     -0.1906736444     6   2   1   1
      0.0044031181     6   2   2   1
     -0.1055229756     6   2   2   2
     -0.0107064502     6   2   3   1
     -0.0237918394     6   2   3   2
     -0.0685840559     6   2   3   3
     -0.0927071467     6   2   4   4
     -0.0927071467     6   2   5   5
      0.0019059070     6   2   6   1
      0.0338908347     6   2   6   2
     -0.1517330123     6   3   1   1
      0.0018695903     6   3   2   1
     -0.0832240045     6   3   2   2
     -0.0031165673     6   3   3   1
      0.0132925799     6   3   3   2
     -0.0724909147     6   3   3   3
     -0.0768861857     6   3   4   4
     -0.0768861857     6   3   5   5
      0.0004980184     6   3   6   1
      0.0228616547     6   3   6   2
      0.0312250266     6   3   6   3
     -0.0071260103     6   4   4   1
     -0.0185561793     6   4   4   2
     -0.0039843998     6   4   4   3
      0.0121894535     6   4   6   4
     -0.0071260103     6   5   5   1
     -0.0185561793     6   5   5   2
     -0.0039843998     6   5   5   3
      0.0121894535     6   5   6   5
      0.4200019725     6   6   1   1
     -0.0017681316     6   6   2   1
      0.3869343044     6   6   2   2
      0.0069113500     6   6   3   1
      0.0462173347     6   6   3   2
      0.3745062833     6   6   3   3
      0.3643462885     6   6   4   4
      0.3643462885     6   6   5   5
     -0.0014400734     6   6   6   1
     -0.0119049453     6   6   6   2
      0.0113057516     6   6   6   3
      0.3562363206     6   6   6   6
      0.0856312781     7   1   1   1
     -0.0162833183     7   1   2   1
     -0.0029178077     7   1   2   2
     -0.0149250877     7   1   3   1
     -0.0200316575     7   1   3   2
      0.0087798779     7   1   3   3
      0.0010404275     7   1   4   4
      0.0010404275     7   1   5   5
      0.0100307376     7   1   6   1
      0.0051474908     7   1   6   2
      0.0012293376     7   1   6   3
     -0.0033270661     7   1   6   6
      0.0145024118     7   1   7   1
     -0.1348406878     7   2   1   1
      0.0025003468     7   2   2   1
     -0.0628479145     7   2   2   2
     -0.0146283581     7   2   3   1
     -0.0200816315     7   2   3   2
     -0.0053433791     7   2   3   3
     -0.0650858453     7   2   4   4
     -0.0650858453     7   2   5   5
      0.0038618520     7   2   6   1
      0.0327738166     7   2   6   2
      0.0221323223     7   2   6   3
      0.0015194457     7   2   6   6
      0.0084499017     7   2   7   1
      0.0561476470     7   2   7   2
     -0.2677963731     7   3   1   1
      0.0068565422     7   3   2   1
     -0.0980155345     7   3   2   2
      0.0046453434     7   3   3   1
      0.0789937630     7   3   3   2
     -0.0924628292     7   3   3   3
     -0.1128070114     7   3   4   4
     -0.1128070114     7   3   5   5
     -0.0032586290     7   3   6   1
      0.0272541008     7   3   6   2
      0.0492102796     7   3   6   3
      0.0253477880     7   3   6   6
     -0.0048438283     7   3   7   1
      0.0416493503     7   3   7   2
      0.1268249671     7   3   7   3
     -0.0077340584     7   4   4   1
     -0.0331728856     7   4   4   2
     -0.0077120806     7   4   4   3
      0.0098309931     7   4   6   4
      0.0191691339     7   4   7   4
     -0.0077340584     7   5   5   1
     -0.0331728856     7   5   5   2
     -0.0077120806     7   5   5   3
      0.0098309931     7   5   6   5
      0.0191691339     7   5   7   5
      0.1814475680     7   6   1   1
     -0.0026661871     7   6   2   1
      0.1241016045     7   6   2   2
      0.0057509761     7   6   3   1
      0.0275305494     7   6   3   2
      0.1190302170     7   6   3   3
      0.1041019817     7   6   4   4
      0.1041019817     7   6   5   5
     -0.0008738131     7   6   6   1
     -0.0168067328     7   6   6   2
     -0.0055132196     7   6   6   3
      0.0466828047     7   6   6   6
     -0.0024047931     7   6   7   1
      0.0025243418     7   6   7   2
      0.0129210475     7   6   7   3
      0.0494889070     7   6   7   6
      0.6583864306     7   7   1   1
     -0.0039789652     7   7   2   1
      0.5840758689     7   7   2   2
      0.0097870945     7   7   3   1
      0.1007379276     7   7   3   2
      0.5899246495     7   7   3   3
      0.5196201205     7   7   4   4
      0.5196201205     7   7   5   5
     -0.0015775460     7   7   6   1
     -0.0285319859     7   7   6   2
      0.0095418093     7   7   6   3
      0.4158906361     7   7   6   6
     -0.0039503413     7   7   7   1
      0.0427091367     7   7   7   2
      0.0939143628     7   7   7   3
      0.1365010788     7   7   7   6
      0.7135421461     7   7   7   7
     -0.1330389207     8   1   1   1
      0.0177798353     8   1   2   1
     -0.0136260630     8   1   2   2
     -0.0316318355     8   1   3   1
     -0.0249465504     8   1   3   2
      0.0048498953     8   1   3   3
     -0.0035622044     8   1   4   4
     -0.0035622044     8   1   5   5
      0.0036980705     8   1   6   1
      0.0092026182     8   1   6   2
      0.0028788282     8   1   6   3
     -0.0057406756     8   1   6   6
      0.0135632800     8   1   7   1
      0.0126476897     8   1   7   2
     -0.0032324589     8   1   7   3
     -0.0049131114     8   1   7   6
     -0.0080927084     8   1   7   7
      0.0299244884     8   1   8   1
      0.0856698522     8   2   1   1
     -0.0063403858     8   2   2   1
      0.0172968447     8   2   2   2
     -0.0130902941     8   2   3   1
     -0.0444081237     8   2   3   2
      0.0176061874     8   2   3   3
      0.0402740456     8   2   4   4
      0.0402740456     8   2   5   5
      0.0061370917     8   2   6   1
      0.0055955410     8   2   6   2
      0.0063436528     8   2   6   3
      0.0021199951     8   2   6   6
      0.0098013097     8   2   7   1
      0.0046483698     8   2   7   2
     -0.0175383239     8   2   7   3
     -0.0044717616     8   2   7   6
     -0.0091095396     8   2   7   7
      0.0114648743     8   2   8   1
      0.0388296312     8   2   8   2
     -0.3797680698     8   3   1   1
      0.0115071110     8   3   2   1
     -0.1695233278     8   3   2   2
     -0.0002073550     8   3   3   1
     -0.0144987294     8   3   3   2
     -0.1536232282     8   3   3   3
     -0.1488820592     8   3   4   4
     -0.1488820592     8   3   5   5
     -0.0034917583     8   3   6   1
      0.0371172953     8   3   6   2
      0.0224631753     8   3   6   3
[...]
 tce:restart_ignore_failure           logical[4]      Tue Jul 30 17:21:57 2019 
 tce:guess_lr_real                    logical[1]      Tue Jul 30 17:21:57 2019 
 basis:ao basis:tags info                 int[280]    Tue Jul 30 17:21:57 2019 
 tce:skip_t                           logical[1]      Tue Jul 30 17:21:57 2019 
 tce:hbard                                int[1]      Tue Jul 30 17:21:57 2019 
 tce:diagnt1                          logical[1]      Tue Jul 30 17:21:57 2019 
 geometry:geometry:zmt_ijkang_frz        logical[160]    Tue Jul 30 17:21:57 2019 
 tce:read_integrals                   logical[5]      Tue Jul 30 17:21:57 2019 
 tce:bnumfreq                             int[1]      Tue Jul 30 17:21:57 2019 
 tce:ccsdvar                             char[5]      Tue Jul 30 17:21:57 2019 
 tce:lineresp                         logical[1]      Tue Jul 30 17:21:57 2019 
 tce:save_l                           logical[4]      Tue Jul 30 17:21:57 2019 
 tce:ichopx                               int[1]      Tue Jul 30 17:21:57 2019 
 tce:nogamma                          logical[1]      Tue Jul 30 17:21:57 2019 
 scf:dipole                            double[3]      Tue Jul 30 17:21:57 2019 
 geometry:ngeom                           int[1]      Tue Jul 30 17:21:57 2019 
 tce:uact                                 int[1]      Tue Jul 30 17:21:57 2019 
 geometry:geometry:zmt_ijklto             int[640]    Tue Jul 30 17:21:57 2019 
 tce:save_tr                          logical[8]      Tue Jul 30 17:21:57 2019 
 geometry:geometry:zmt_ijklnb             int[640]    Tue Jul 30 17:21:57 2019 
 geometry:geometry:operators           double[2304]   Tue Jul 30 17:21:57 2019 
 tce:zlshiftl                          double[1]      Tue Jul 30 17:21:57 2019 
 tce:skip_tr                          logical[1]      Tue Jul 30 17:21:57 2019 
 basis:ao basis:star nr tags              int[1]      Tue Jul 30 17:21:57 2019 
 geometry:geometry:zmt_ijkang_val         double[160]    Tue Jul 30 17:21:57 2019 
 tce:anumfreq                             int[1]      Tue Jul 30 17:21:57 2019 
 geometry:geometry:zmt_ijklto_nam           char[160]    Tue Jul 30 17:21:57 2019 
 geometry:geometry:zmt_ijklop_frz        logical[160]    Tue Jul 30 17:21:57 2019 
 tce:save_t                           logical[4]      Tue Jul 30 17:21:57 2019 
 geometry:geometry:zmt_varsign         double[1]      Tue Jul 30 17:21:57 2019 
 geometry:geometry:recip vectors         double[3]      Tue Jul 30 17:21:57 2019 
 tce:model                               char[5]      Tue Jul 30 17:21:57 2019 
 tce:maxiter                              int[1]      Tue Jul 30 17:21:57 2019 
 tce:symmetry                         logical[1]      Tue Jul 30 17:21:57 2019 
 tce:save_x                           logical[4]      Tue Jul 30 17:21:57 2019 
 geometry:geometry:no. unique centers            int[1]      Tue Jul 30 17:21:57 2019 
 basis:ao basis:contraction info            int[90000]  Tue Jul 30 17:21:57 2019 
 tce:save_y                           logical[4]      Tue Jul 30 17:21:57 2019 
 geometry:geometry:zmt_izmat              int[3]      Tue Jul 30 17:21:57 2019 
 basis:ao basis:bs_nr_tags                int[1]      Tue Jul 30 17:21:57 2019 
 geometry:geometry:zmt_ijklop_val         double[160]    Tue Jul 30 17:21:57 2019 
 geometry:geometry:group number            int[1]      Tue Jul 30 17:21:57 2019 
 tce:nactv                                int[1]      Tue Jul 30 17:21:57 2019 
 tce:active_va                            int[1]      Tue Jul 30 17:21:57 2019 
 geometry:geometry:recip angles         double[3]      Tue Jul 30 17:21:57 2019 
 tce:active_vb                            int[1]      Tue Jul 30 17:21:57 2019 
 tce:active_oa                            int[1]      Tue Jul 30 17:21:57 2019 
 tce:active_ob                            int[1]      Tue Jul 30 17:21:57 2019 
 geometry:geometry:zmt_varname           char[2]      Tue Jul 30 17:21:57 2019 
 tce:thresh                            double[1]      Tue Jul 30 17:21:57 2019 
 geometry:geometry:system type            int[1]      Tue Jul 30 17:21:57 2019 
 tce:energy                            double[1]      Tue Jul 30 17:22:08 2019 
 tce:nopolar                          logical[1]      Tue Jul 30 17:21:57 2019 
 basis:ao basis:bs_stdname               char[16]     Tue Jul 30 17:21:57 2019 
 geometry:geometry:charges             double[2]      Tue Jul 30 17:21:57 2019 
 tce:respaxis                         logical[3]      Tue Jul 30 17:21:57 2019 
 tce:perturbative                        char[5]      Tue Jul 30 17:21:57 2019 
 scf:multiplicity                        char[8]      Tue Jul 30 17:21:57 2019 
 geometry:geometry:zmt_nizmat             int[1]      Tue Jul 30 17:21:57 2019 
 scf:output vectors                      char[24]     Tue Jul 30 17:21:57 2019 
 basis:ao basis:header                    int[7]      Tue Jul 30 17:21:57 2019 
 geometry:geometry:zmt_cvr_scaling         double[1]      Tue Jul 30 17:21:57 2019 
 geometry:geometry:tags                  char[4]      Tue Jul 30 17:21:57 2019 
 scf:input vectors                       char[24]     Tue Jul 30 17:21:57 2019 
 geometry:geometry:zmt_ijklnb_nam           char[160]    Tue Jul 30 17:21:57 2019 
 geometry:geometry:zmt_ijklto_frz        logical[160]    Tue Jul 30 17:21:57 2019 
 geometry:geometry:include_bqbq        logical[1]      Tue Jul 30 17:21:57 2019 
 tce:qducc                            logical[1]      Tue Jul 30 17:21:57 2019 
 geometry:geometry:zmt_ijklop             int[640]    Tue Jul 30 17:21:57 2019 
 geometry:geometry:group name            char[3]      Tue Jul 30 17:21:57 2019 
 tce:model2e                             char[6]      Tue Jul 30 17:21:57 2019 
 tce:eactmax                           double[1]      Tue Jul 30 17:21:57 2019 
 tce:zlshift2                          double[2]      Tue Jul 30 17:21:57 2019 
 tce:eactmin                           double[1]      Tue Jul 30 17:21:57 2019 
 basisprint:ao basis                  logical[1]      Tue Jul 30 17:21:57 2019 
 tce:oact                                 int[1]      Tue Jul 30 17:21:57 2019 
 tce:zlshift3                          double[2]      Tue Jul 30 17:21:57 2019 
 tce:densmat                          logical[1]      Tue Jul 30 17:21:57 2019 
 tce:nroots                               int[1]      Tue Jul 30 17:21:57 2019 
 geometry:geometry:zmt_ijklto_val         double[160]    Tue Jul 30 17:21:57 2019 
 geometry:geometry:zmt_maxtor             int[1]      Tue Jul 30 17:21:57 2019 
 scf:converged                        logical[1]      Tue Jul 30 17:21:57 2019 
 scf:nelec                                int[1]      Tue Jul 30 17:21:57 2019 
 tce:maxdiff                           double[1]      Tue Jul 30 17:21:57 2019 
 tce:guess_qr_real                    logical[1]      Tue Jul 30 17:21:57 2019 
 basis:ao basis:number of exps and coeffs            int[1]      Tue Jul 30 17:21:57 2019 
 geometry:names                          char[9]      Tue Jul 30 17:21:57 2019 
 geometry:geometry:masses              double[2]      Tue Jul 30 17:21:57 2019 
 tce:zlshift                           double[1]      Tue Jul 30 17:21:57 2019 
 tce:eoms                                 int[1]      Tue Jul 30 17:21:57 2019 
 tce:ampnorms                         logical[1]      Tue Jul 30 17:21:57 2019 
 scf:scftype                             char[4]      Tue Jul 30 17:21:57 2019 
 tce:diis2                                int[1]      Tue Jul 30 17:21:57 2019 
 tce:read_l                           logical[4]      Tue Jul 30 17:21:57 2019 
 tce:enegr                             double[1]      Tue Jul 30 17:22:08 2019 
 basis:ao basis:exps and coeffs         double[54]     Tue Jul 30 17:21:57 2019 
 tce:diis3                                int[1]      Tue Jul 30 17:21:57 2019 
 geometry:geometry:unique centers            int[2]      Tue Jul 30 17:21:57 2019 
 tce:read_lr                          logical[8]      Tue Jul 30 17:21:57 2019 
 geometry:geometry:zmt_ijbond_nam           char[160]    Tue Jul 30 17:21:57 2019 
 geometry:geometry:amatrix             double[9]      Tue Jul 30 17:21:57 2019 
 geometry:geometry:inv nuc expon         double[2]      Tue Jul 30 17:21:57 2019 
 geometry:geometry:zmt_ijklnb_val         double[160]    Tue Jul 30 17:21:57 2019 
 geometry:geometry:vel                 double[6]      Tue Jul 30 17:21:57 2019 
 geometry:geometry:zmt_ijklnb_frz        logical[160]    Tue Jul 30 17:21:57 2019 
 task:status                          logical[1]      Tue Jul 30 17:22:08 2019 
 geometry:geometry:direct volume         double[1]      Tue Jul 30 17:21:57 2019 
 tce:afreq                             double[1]      Tue Jul 30 17:21:57 2019 
 geometry:geometry:num_operators            int[1]      Tue Jul 30 17:21:57 2019 
 tce:read_t                           logical[4]      Tue Jul 30 17:21:57 2019 
 tce:save_interval                        int[1]      Tue Jul 30 17:21:57 2019 
 basis:nbasis                             int[1]      Tue Jul 30 17:21:57 2019 
 file_prefix                             char[15]     Tue Jul 30 17:21:57 2019 
 geometry:geometry:primitive_center           char[2]      Tue Jul 30 17:21:57 2019 
 task:energy                           double[1]      Tue Jul 30 17:22:08 2019 
 geometry:geometry:ncenter                int[1]      Tue Jul 30 17:21:57 2019 
 tce:idiskx                               int[1]      Tue Jul 30 17:21:57 2019 
 tce:damp2                             double[1]      Tue Jul 30 17:21:57 2019 
 geometry:geometry:zmt_nzvar              int[1]      Tue Jul 30 17:21:57 2019 
 tce:quadresp                         logical[1]      Tue Jul 30 17:21:57 2019 
 tce:damp3                             double[1]      Tue Jul 30 17:21:57 2019 
 scf:thresh                            double[1]      Tue Jul 30 17:21:57 2019 
 scf:energy                            double[1]      Tue Jul 30 17:21:57 2019 
 tce:read_tr                          logical[8]      Tue Jul 30 17:21:57 2019 
 tce:read_x                           logical[4]      Tue Jul 30 17:21:57 2019 
 basis:ao basis:assoc ecp name           char[4]      Tue Jul 30 17:21:57 2019 
 tce:read_y                           logical[4]      Tue Jul 30 17:21:57 2019 
 geometry:geometry:zmt_ijbond             int[320]    Tue Jul 30 17:21:57 2019 
 geometry:geometry:zmt_source            char[6]      Tue Jul 30 17:21:57 2019 
 geometry:geometry:setting number            int[1]      Tue Jul 30 17:21:57 2019 
 tce:act_excit_lvl                        int[1]      Tue Jul 30 17:21:57 2019 
 basis:ao basis:bs_tags                  char[4]      Tue Jul 30 17:21:57 2019 
 tce:i4im                                 int[1]      Tue Jul 30 17:21:57 2019 
 scf:tol2e                             double[1]      Tue Jul 30 17:21:57 2019 
 tce:diis                                 int[1]      Tue Jul 30 17:21:57 2019 
 tce:recompf                          logical[1]      Tue Jul 30 17:21:57 2019 
 rtdb:stored:state                    logical[3]      Tue Jul 30 17:21:57 2019 
 scf:alpha irreps                         int[19]     Tue Jul 30 17:21:57 2019 
 tce:module                              char[4]      Tue Jul 30 17:21:57 2019 
 geometry:geometry:zmt_ijbond_frz        logical[160]    Tue Jul 30 17:21:57 2019 
 tce:target                               int[1]      Tue Jul 30 17:21:57 2019 
 tce:left                             logical[1]      Tue Jul 30 17:21:57 2019 


 HDBM usage statistics
 ---------------------
 Reads         = 1932
 Inserts       = 1090
 Replaces      = 374
 Extracts      = 0
 Deletes       = 2166
 Reuses        = 16

 Memory allocs = 10066
 Memory frees  = 10066
 Memory max    = 1519711
 Memory in use = 0

 IO seeks      = 4075
 IO reads      = 2964
 IO writes     = 3289
 IO nread      = 3222024
 IO nwrite     = 2392636

 Summary of allocated global arrays
-----------------------------------
  No active global arrays



                         GA Statistics for process    0
                         ------------------------------

       create   destroy   get      put      acc     scatter   gather  read&inc
calls: 2080     2080     6528     2620     3483        0        0     4357     
number of processes/call -1.38e+14 -3.09e+15 2.11e+13 0.00e+00 0.00e+00
bytes total:             1.86e+08 9.48e+06 4.47e+07 0.00e+00 0.00e+00 3.49e+04
bytes remote:            0.00e+00 0.00e+00 0.00e+00 0.00e+00 0.00e+00 0.00e+00
Max memory consumed for GA by this process: 1663800 bytes

MA_summarize_allocated_blocks: starting scan ...
MA_summarize_allocated_blocks: scan completed: 0 heap blocks, 0 stack blocks
MA usage statistics:

	allocation statistics:
					      heap	     stack
					      ----	     -----
	current number of blocks	         0	         0
	maximum number of blocks	        17	        40
	current total bytes		         0	         0
	maximum total bytes		   1060368	  55520424
	maximum total K-bytes		      1061	     55521
	maximum total M-bytes		         2	        56

	calls per routine:
		        39  MA_alloc_get
		        39  MA_allocate_heap
		       157  MA_chop_stack
		        39  MA_free_heap
		         0  MA_free_heap_piece
		     15432  MA_get_index
		         5  MA_get_mbase
		         0  MA_get_next_memhandle
		         0  MA_get_numalign
		        41  MA_get_pointer
		         1  MA_init
		         0  MA_initialized
		         0  MA_init_memhandle_iterator
		       206  MA_inquire_avail
		         1  MA_inquire_heap
		         0  MA_inquire_heap_check_stack
		         0  MA_inquire_heap_no_partition
		         1  MA_inquire_stack
		         0  MA_inquire_stack_check_heap
		         0  MA_inquire_stack_no_partition
		     15200  MA_pop_stack
		         1  MA_print_stats
		     15393  MA_push_get
		     15434  MA_push_stack
		         3  MA_set_auto_verify
		         1  MA_set_error_print
		         3  MA_set_hard_fail
		         1  MA_set_numalign
		      9236  MA_sizeof
		        21  MA_sizeof_overhead
		         1  MA_summarize_allocated_blocks
		         0  MA_trace
		     55803  MA_verify_allocator_stuff


                                     CITATION
                                     --------
                Please cite the following reference when publishing
                           results obtained with NWChem:

                 M. Valiev, E.J. Bylaska, N. Govind, K. Kowalski,
              T.P. Straatsma, H.J.J. van Dam, D. Wang, J. Nieplocha,
                        E. Apra, T.L. Windus, W.A. de Jong
                 "NWChem: a comprehensive and scalable open-source
                  solution for large scale molecular simulations"
                      Comput. Phys. Commun. 181, 1477 (2010)
                           doi:10.1016/j.cpc.2010.04.018

                                      AUTHORS
                                      -------
          E. Apra, E. J. Bylaska, W. A. de Jong, N. Govind, K. Kowalski,
       T. P. Straatsma, M. Valiev, H. J. J. van Dam, D. Wang, T. L. Windus,
        J. Hammond, J. Autschbach, K. Bhaskaran-Nair, J. Brabec, K. Lopata,
    S. A. Fischer, S. Krishnamoorthy, M. Jacquelin, W. Ma, M. Klemm, O. Villa,
      Y. Chen, V. Anisimov, F. Aquino, S. Hirata, M. T. Hackler, V. Konjkov,
            D. Mejia-Rodriguez, T. Risthaus, M. Malagoli, A. Marenich,
   A. Otero-de-la-Roza, J. Mullin, P. Nichols, R. Peverati, J. Pittner, Y. Zhao,
        P.-D. Fan, A. Fonari, M. J. Williamson, R. J. Harrison, J. R. Rehr,
      M. Dupuis, D. Silverstein, D. M. A. Smith, J. Nieplocha, V. Tipparaju,
    M. Krishnan, B. E. Van Kuiken, A. Vazquez-Mayagoitia, L. Jensen, M. Swart,
      Q. Wu, T. Van Voorhis, A. A. Auer, M. Nooijen, L. D. Crosby, E. Brown,
      G. Cisneros, G. I. Fann, H. Fruchtl, J. Garza, K. Hirao, R. A. Kendall,
      J. A. Nichols, K. Tsemekhman, K. Wolinski, J. Anchell, D. E. Bernholdt,
      P. Borowski, T. Clark, D. Clerc, H. Dachsel, M. J. O. Deegan, K. Dyall,
    D. Elwood, E. Glendening, M. Gutowski, A. C. Hess, J. Jaffe, B. G. Johnson,
     J. Ju, R. Kobayashi, R. Kutteh, Z. Lin, R. Littlefield, X. Long, B. Meng,
      T. Nakajima, S. Niu, L. Pollack, M. Rosing, K. Glaesemann, G. Sandrone,
      M. Stave, H. Taylor, G. Thomas, J. H. van Lenthe, A. T. Wong, Z. Zhang.

                                    REFERENCES
                                    ----------

          Where appropriate, please cite the following reference(s) 
          when publishing results obtained with NWChem:


     1. D. E. Bernholdt, E. Apra, H. A. Fruchtl, M.F. Guest, R. J. Harrison, 
        R. A. Kendall, R. A. Kutteh, X. Long, J. B. Nicholas, J. A. Nichols, 
        H. L. Taylor, A. T. Wong, G. I. Fann, R. J. Littlefield and
        J. Nieplocha,
        "Parallel Computational Chemistry Made Easier: 
        The Development of NWChem,"
        Int. J. Quantum Chem. Symposium  29, 475-483 (1995).


     2. M. F. Guest, E. Apra, D. E. Bernholdt, H. A. Fruchtl, R. J. Harrison, 
        R. A. Kendall, R. A. Kutteh, X. Long, J. B. Nicholas, J. A. Nichols, 
        H. L. Taylor, A. T. Wong, G. I. Fann, R. J. Littlefield and
        J. Nieplocha,
        "High Performance Computational Chemistry: NWChem and Fully Distributed
        Parallel Applications", in Advances in Parallel Computing, 10, High
        Performance Computing: Technology, Methods, and Applications, Eds. 
        J. Dongarra, L. Gradinetti, G. Joubert, and J. Kowalik, 
        (Elsevier Science B. V. pp. 395-427, 1995).


     3. M. F. Guest, E. Apra, D. E. Bernholdt, H. A. Fruchtl, R. J. Harrison, 
        R. A. Kendall, R. A. Kutteh, J. B. Nicholas, J. A. Nichols, M. S. Stave,
        A. T. Wong, R. J. Littlefield and J. Nieplocha, "High Performance 
        Computational Chemistry: Towards Fully Distributed Parallel Algorithms",
        in High Performance Computing: Symposium 1995, Grand Challenges in 
        Computer Simulation, Adrian M. Tentner, Editor, Proceedings of the 1995 
        Simulation Multiconference, April 9-13, 1995, Phoenix, Arizona, 
        Simulation Councils, Inc., The Society for Computer Simulation, 
        San Diego, CA, 1995. pp. 511-521.


     4. M. F. Guest, E. Apra, D. E. Bernholdt, H. A. Fruchtl, R. J. Harrison,
        R. A. Kendall, R. A. Kutteh, X. Long, J. B. Nicholas, J. A. Nichols, 
        H. L. Taylor, A. T. Wong, G. I. Fann, R. J. Littlefield and
        J. Nieplocha,
        "Advances in Parallel Distributed Data Software; Computational Chemistry
        and NWChem", in Applied Parallel Computing.  Computations in Physics,
        Chemistry, and Engineering Science, Eds. J. Wasnieski, J. Dongarra, and 
        K. Madsen, Lecture Notes in Computer Science, 1041,
        (Springer-Verlag, Berlin, 278-294, 1996).


     5. M. F. Guest, E. Apra, D. E. Bernholdt, H. A. Fruchtl, R. J. Harrison,
        R. A. Kendall, R. A. Kutteh, X. Long, J. B. Nicholas, J. A. Nichols, 
        H. L. Taylor, A. T. Wong, G. I. Fann, R. J. Littlefield and
        J. Nieplocha, 
        "High-Performance Computing in Chemistry; NWChem", Future 
        Generations Computer Systems  12(4), 273, (1996).


     6. R. A. Kendall, E. Apra, D. E. Bernholdt, E. J. Bylaska, M. Dupuis,
        G. I. Fann, R. J. Harrison, J. Ju, J. A. Nichols, J. Nieplocha,
        T. P. Straatsma, T. L. Windus, A. T. Wong,
        Computer Phys. Comm. 128, 260 (2000).


     7. T. P. Straatsma and V. Helms, in Molecular Dynamics on Parallel
        Computers2000, R. Esser et al. editors, p 70.


     8.  T. P. Straatsma, M. Philippopoulos and J. A. McCammon,
         Computer Phys. Comm. 128, 377 (2000).


     9.  M. Valiev, E. J. Bylaska, A. Gramada, and J. H. Weare,
         Reviews in Modern Quantum Chemistry, pages 1684-1734
         (World Scientific, Singapore, 2002).


    10.  E. J. Bylaska, M. Valiev, R. Kawai, and J. H. Weare,
         Computer Phys. Comm. 143, 11 (2002).


    11.  M. Valiev and J. H. Weare,
         J. Phys. Chem. A, 103, 10588 (1999).



 Total times  cpu:       10.9s     wall:       10.9s
