 argument  1 = originalHF.nw
  NWChem w/ OpenMP: maximum threads =    4



============================== echo of input deck ==============================
start tce_hf_1.46688

echo
memory total 6 gb
print high

geometry units angstrom
symmetry c1
H  0.0000000  0.0000  1.46688
F  0.0000000  0.0000  0.00000
end


basis spherical
H library cc-pvdz
F library cc-pvdz
end

scf
thresh 1.0e-10
tol2e 1.0e-10
singlet
rhf
end

tce
2eorb
2emet 13
thresh 1.0d-8
ccsd
end

set tce:qducc T
set tce:nactv 5

task tce energy

================================================================================


                                         
                                         


              Northwest Computational Chemistry Package (NWChem) 6.8
              ------------------------------------------------------


                    Environmental Molecular Sciences Laboratory
                       Pacific Northwest National Laboratory
                                Richland, WA 99352

                              Copyright (c) 1994-2018
                       Pacific Northwest National Laboratory
                            Battelle Memorial Institute

             NWChem is an open-source computational chemistry package
                        distributed under the terms of the
                      Educational Community License (ECL) 2.0
             A copy of the license is included with this distribution
                              in the LICENSE.TXT file

                                  ACKNOWLEDGMENT
                                  --------------

            This software and its documentation were developed at the
            EMSL at Pacific Northwest National Laboratory, a multiprogram
            national laboratory, operated for the U.S. Department of Energy
            by Battelle under Contract Number DE-AC05-76RL01830. Support
            for this work was provided by the Department of Energy Office
            of Biological and Environmental Research, Office of Basic
            Energy Sciences, and the Office of Advanced Scientific Computing.


           Job information
           ---------------

    hostname        = WE27583
    program         = /Users/lamm799/nwchem/bin/MACX64/nwchem
    date            = Tue Jul 30 17:26:25 2019

    compiled        = Mon_Jul_15_13:12:43_2019
    source          = /Users/lamm799/nwchem
    nwchem branch   = Development
    nwchem revision = nwchem_on_git-975-g459e4567d
    ga revision     = 5.7.0
    use scalapack   = F
    input           = originalHF.nw
    prefix          = tce_hf_1.46688.
    data base       = ./tce_hf_1.46688.db
    status          = startup
    nproc           =        1
    time left       =     -1s



           Memory information
           ------------------

    heap     =  201326588 doubles =   1536.0 Mbytes
    stack    =  201326593 doubles =   1536.0 Mbytes
    global   =  402653184 doubles =   3072.0 Mbytes (distinct from heap & stack)
    total    =  805306365 doubles =   6144.0 Mbytes
    verify   = yes
    hardfail = no 


           Directory information
           ---------------------

  0 permanent = .
  0 scratch   = .




                                NWChem Input Module
                                -------------------



 Scaling coordinates for geometry "geometry" by  1.889725989
 (inverse scale =  0.529177249)

 Turning off AUTOSYM since
 SYMMETRY directive was detected!

     MOLECULAR POINT GROUP NUMBER =  1     SCHOENFLIES SYMBOL = C1        

                --------------- GROUP GENERATORS ---------------

                      1 GENERATORS USED TO FORM THE GROUP

                         PT fold Rotoinversion Operator
                     1.000000  0.000000  0.000000  0.000000
                     0.000000  1.000000  0.000000  0.000000
                     0.000000  0.000000  1.000000  0.000000


The   1 symmetry operators (excl. E) are as follows:



                    ---------- FULL LISTING OF GROUP ----------

                  MATRIX REPRESENTATIONS OF THE GROUP OPERATORS

     EXCLUDING THE IDENTITY OPERATOR THERE ARE  1 OPERATORS IN THIS GROUP

                         pt fold Rotoinversion Operator
                     1.000000  0.000000  0.000000  0.000000
                     0.000000  1.000000  0.000000  0.000000
                     0.000000  0.000000  1.000000  0.000000


                  <<< SYMMETRY OPERATION/ATOM MAPPING BUILT >>>
      Symmetry information
      --------------------

 Group name             C1        
 Group number              1
 Group order               1
 No. of unique centers     2



                  Character table for group C1      

                  1e     
        a          1.000

      Symmetry unique atoms

     1    2

      Mapping of centers


      Group operations



          ------
          auto-z
          ------
     1 autoz failed with cvr_scaling = 1.2 changing to 1.3
     2 autoz failed with cvr_scaling = 1.3 changing to 1.4
     3 autoz failed with cvr_scaling = 1.4 changing to 1.5
     4 autoz failed with cvr_scaling = 1.5 changing to 1.6
  no constraints, skipping    0.0000000000000000     
 Imposing constraints:   iter = 1  dqmax = 0.0D+00
  no constraints, skipping    0.0000000000000000     


                             Geometry "geometry" -> ""
                             -------------------------

 Output coordinates in angstroms (scale by  1.889725989 to convert to a.u.)

  No.       Tag          Charge          X              Y              Z
 ---- ---------------- ---------- -------------- -------------- --------------
    1 H                    1.0000     0.00000000     0.00000000     1.32019200
    2 F                    9.0000     0.00000000     0.00000000    -0.14668800

      Atomic Mass 
      ----------- 

      H                  1.007825
      F                 18.998400


 Effective nuclear repulsion energy (a.u.)       3.2467517731

            Nuclear Dipole moment (a.u.) 
            ----------------------------
        X                 Y               Z
 ---------------- ---------------- ----------------
     0.0000000000     0.0000000000    -0.0000000000



                                Z-matrix (autoz)
                                -------- 

 Units are Angstrom for bonds and degrees for angles

      Type          Name      I     J     K     L     M      Value
      ----------- --------  ----- ----- ----- ----- ----- ----------
    1 Stretch                  1     2                       1.46688


            XYZ format geometry
            -------------------
     2
 geometry
 H                     0.00000000     0.00000000     1.32019200
 F                     0.00000000     0.00000000    -0.14668800

                      Basis "ao basis" -> "" (spherical)
                      -----
  H (Hydrogen)
  ------------
            Exponent  Coefficients 
       -------------- ---------------------------------------------------------
  1 S  1.30100000E+01  0.019685
  1 S  1.96200000E+00  0.137977
  1 S  4.44600000E-01  0.478148

  2 S  1.22000000E-01  1.000000

  3 P  7.27000000E-01  1.000000

  F (Fluorine)
  ------------
            Exponent  Coefficients 
       -------------- ---------------------------------------------------------
  1 S  1.47100000E+04  0.000721
  1 S  2.20700000E+03  0.005553
  1 S  5.02800000E+02  0.028267
  1 S  1.42600000E+02  0.106444
  1 S  4.64700000E+01  0.286814
  1 S  1.67000000E+01  0.448641
  1 S  6.35600000E+00  0.264761
  1 S  1.31600000E+00  0.015333

  2 S  1.47100000E+04 -0.000165
  2 S  2.20700000E+03 -0.001308
  2 S  5.02800000E+02 -0.006495
  2 S  1.42600000E+02 -0.026691
  2 S  4.64700000E+01 -0.073690
  2 S  1.67000000E+01 -0.170776
  2 S  6.35600000E+00 -0.112327
  2 S  1.31600000E+00  0.562814

  3 S  3.89700000E-01  1.000000

  4 P  2.26700000E+01  0.044878
  4 P  4.97700000E+00  0.235718
  4 P  1.34700000E+00  0.508521

  5 P  3.47100000E-01  1.000000

  6 D  1.64000000E+00  1.000000



 Summary of "ao basis" -> "" (spherical)
 ------------------------------------------------------------------------------
       Tag                 Description            Shells   Functions and Types
 ---------------- ------------------------------  ------  ---------------------
 H                          cc-pvdz                  3        5   2s1p
 F                          cc-pvdz                  6       14   3s2p1d



 Setting fock-build task_bf   :      -1
                    maxquartet:   10000
                    maxeri    :  129600
                    maxscr    :       0
                    intacc    : 0.0D+00
                    denscreen : T
                    dentol    : 1.0D-06

                                 NWChem SCF Module
                                 -----------------



  ao basis        = "ao basis"
  functions       =    19
  atoms           =     2
  closed shells   =     5
  open shells     =     0
  charge          =   0.00
  wavefunction    = RHF 
  input vectors   = atomic
  output vectors  = ./tce_hf_1.46688.movecs
  use symmetry    = F
  symmetry adapt  = F


 Summary of "ao basis" -> "ao basis" (spherical)
 ------------------------------------------------------------------------------
       Tag                 Description            Shells   Functions and Types
 ---------------- ------------------------------  ------  ---------------------
 H                          cc-pvdz                  3        5   2s1p
 F                          cc-pvdz                  6       14   3s2p1d




                         Geometry "geometry" -> "geometry"
                         ---------------------------------

 Output coordinates in angstroms (scale by  1.889725989 to convert to a.u.)

  No.       Tag          Charge          X              Y              Z
 ---- ---------------- ---------- -------------- -------------- --------------
    1 H                    1.0000     0.00000000     0.00000000     1.32019200
    2 F                    9.0000     0.00000000     0.00000000    -0.14668800

      Atomic Mass 
      ----------- 

      H                  1.007825
      F                 18.998400


 Effective nuclear repulsion energy (a.u.)       3.2467517731

            Nuclear Dipole moment (a.u.) 
            ----------------------------
        X                 Y               Z
 ---------------- ---------------- ----------------
     0.0000000000     0.0000000000    -0.0000000000



                                Z-matrix (autoz)
                                -------- 

 Units are Angstrom for bonds and degrees for angles

      Type          Name      I     J     K     L     M      Value
      ----------- --------  ----- ----- ----- ----- ----- ----------
    1 Stretch                  1     2                       1.46688


                      Basis "ao basis" -> "ao basis" (spherical)
                      -----
  H (Hydrogen)
  ------------
            Exponent  Coefficients 
       -------------- ---------------------------------------------------------
  1 S  1.30100000E+01  0.019685
  1 S  1.96200000E+00  0.137977
  1 S  4.44600000E-01  0.478148

  2 S  1.22000000E-01  1.000000

  3 P  7.27000000E-01  1.000000

  F (Fluorine)
  ------------
            Exponent  Coefficients 
       -------------- ---------------------------------------------------------
  1 S  1.47100000E+04  0.000721
  1 S  2.20700000E+03  0.005553
  1 S  5.02800000E+02  0.028267
  1 S  1.42600000E+02  0.106444
  1 S  4.64700000E+01  0.286814
  1 S  1.67000000E+01  0.448641
  1 S  6.35600000E+00  0.264761
  1 S  1.31600000E+00  0.015333

  2 S  1.47100000E+04 -0.000165
  2 S  2.20700000E+03 -0.001308
  2 S  5.02800000E+02 -0.006495
  2 S  1.42600000E+02 -0.026691
  2 S  4.64700000E+01 -0.073690
  2 S  1.67000000E+01 -0.170776
  2 S  6.35600000E+00 -0.112327
  2 S  1.31600000E+00  0.562814

  3 S  3.89700000E-01  1.000000

  4 P  2.26700000E+01  0.044878
  4 P  4.97700000E+00  0.235718
  4 P  1.34700000E+00  0.508521

  5 P  3.47100000E-01  1.000000

  6 D  1.64000000E+00  1.000000



    Basis function labels
    ---------------------
       No.  Atm El Type
       ---  --- -- ----
        1    1 H  s          
        2    1 H  s          
        3    1 H  px         
        4    1 H  py         
        5    1 H  pz         
        6    2 F  s          
        7    2 F  s          
        8    2 F  s          
        9    2 F  px         
       10    2 F  py         
       11    2 F  pz         
       12    2 F  px         
       13    2 F  py         
       14    2 F  pz         
       15    2 F  d -2       
       16    2 F  d -1       
       17    2 F  d  0       
       18    2 F  d  1       
       19    2 F  d  2       

 Schwarz integral screening summary 
 ---------------------------------- 

        No. of atom pairs =       3
       No. of shell pairs =      45

 Atomic screening 

   value      no.     value      no.     value      no.     value      no.   
  -------- ------    -------- ------    -------- ------    -------- ------   
  0.00D+00      0    1.00D-13      0    1.00D-12      0    1.00D-11      0
  1.00D-10      0    1.00D-09      0    1.00D-08      0    1.00D-07      0
  1.00D-06      0    1.00D-05      0    1.00D-04      0    1.00D-03      0
  1.00D-02      0    1.00D-01      0    1.00D+00      3    1.00D+01      0


 Shell screening 

   value      no.     value      no.     value      no.     value      no.   
  -------- ------    -------- ------    -------- ------    -------- ------   
  0.00D+00      0    1.00D-13      0    1.00D-12      0    1.00D-11      0
  1.00D-10      0    1.00D-09      0    1.00D-08      0    1.00D-07      0
  1.00D-06      0    1.00D-05      0    1.00D-04      0    1.00D-03      0
  1.00D-02      2    1.00D-01     17    1.00D+00     26    1.00D+01      0



 Forming initial guess at       0.1s


      Superposition of Atomic Density Guess
      -------------------------------------

 Sum of atomic energies:         -99.88314519

      Non-variational initial energy
      ------------------------------

 Total energy =     -99.484259
 1-e energy   =    -146.230684
 2-e energy   =      43.499674
 HOMO         =      -0.587175
 LUMO         =      -0.088046


 Setting fock-build task_bf   :      -1
                    maxquartet:   10000
                    maxeri    :  129600
                    maxscr    :       0
                    intacc    : 0.0D+00
                    denscreen : T
                    dentol    : 1.0D-06


 Wrote molecular orbitals to ./tce_hf_1.46688.movecs


 Starting SCF solution at       0.1s

 ready to solve ...                    0


 ----------------------------------------------
         Quadratically convergent ROHF

 Convergence threshold     :          1.000E-10
 Maximum no. of iterations :           30
 Final Fock-matrix accuracy:          1.000E-10
 ----------------------------------------------

   0: nuse=   1(   0.9) avail=   434881Mb (out of   434881Mb) on .

 #quartets = 1.035D+03 #integrals = 4.841D+03 #direct =  0.0% #cached =100.0%


 Integral file          = ./tce_hf_1.46688.aoints.0
 Record size in doubles =  65536        No. of integs per rec  =  43688
 Max. records in memory =      2        Max. records in file   = 826273
 No. of bits per label  =      8        No. of bits per value  =     64


 Wrote rohf: cfock to ./tce_hf_1.46688.cfock


              iter       energy          gnorm     gmax       time
             ----- ------------------- --------- --------- --------
                 1      -99.8037104842  1.02D+00  4.72D-01      0.1

            ----- linear solve (tol: 1.0E-02 prod-acc: 1.2E-08) -----

               iter nbas    rnorm     rnorm-scal   ratio     time
               ---- ---- ----------- ----------- --------- -------
 rohf_wrap: in g_x =    1              1.01872162
 rohf_wrap: out g_x =    1              0.28650249
                  1    1  5.1466E-16  5.0520E-16    0.0000     0.1

                              ----- Line search ------

        step       energy         lsg     num-lsg   num-lsh   lsrat    time
      ------- ---------------- --------- --------- --------- ------- --------
       0.0000     -99.80371048 -2.16D-01  0.00D+00  0.00D+00 0.0D+00      0.1

 Wrote rohf: cfock to ./tce_hf_1.46688.cfock

       1.0000     -99.84231567  1.63D-01  1.51D-01  3.79D-01 7.5D-01      0.1

 Wrote rohf: cfock to ./tce_hf_1.46688.cfock

       0.5699     -99.87305698 -1.73D-02 -1.86D-02  4.19D-01 8.0D-02      0.2

              iter       energy          gnorm     gmax       time
             ----- ------------------- --------- --------- --------
                 2      -99.8730569788  2.68D-01  1.19D-01      0.2

            ----- linear solve (tol: 1.0E-02 prod-acc: 3.2E-09) -----

               iter nbas    rnorm     rnorm-scal   ratio     time
               ---- ---- ----------- ----------- --------- -------
 rohf_wrap: in g_x =    1              0.26827922
 rohf_wrap: out g_x =    1              0.05041518
                  1    1  1.0532E-02  3.9256E-02    0.0000     0.2
 rohf_wrap: in g_x =    1              0.01053156
 rohf_wrap: out g_x =    1              0.00139573
                  2    2  3.3839E-04  1.2614E-03    0.0321     0.2

                              ----- Line search ------

        step       energy         lsg     num-lsg   num-lsh   lsrat    time
      ------- ---------------- --------- --------- --------- ------- --------
       0.0000     -99.87305698 -1.11D-02  0.00D+00  0.00D+00 0.0D+00      0.2

 Wrote rohf: cfock to ./tce_hf_1.46688.cfock

       1.0000     -99.88045083 -3.66D-03 -3.67D-03  7.45D-03 3.3D-01      0.2

 Wrote rohf: cfock to ./tce_hf_1.46688.cfock

       1.4913     -99.88133861  4.97D-05  4.72D-05  7.55D-03 4.5D-03      0.2

              iter       energy          gnorm     gmax       time
             ----- ------------------- --------- --------- --------
                 3      -99.8813386139  1.05D-01  5.79D-02      0.2

            ----- linear solve (tol: 1.0E-01 prod-acc: 1.3E-08) -----

               iter nbas    rnorm     rnorm-scal   ratio     time
               ---- ---- ----------- ----------- --------- -------
 rohf_wrap: in g_x =    1              0.10462258
 rohf_wrap: out g_x =    1              0.01487293
                  1    1  3.6139E-02  3.4542E-01    0.0000     0.2
 rohf_wrap: in g_x =    1              0.03613924
 rohf_wrap: out g_x =    1              0.00463515
                  2    2  1.0045E-02  9.6010E-02    0.2779     0.2

                              ----- Line search ------

        step       energy         lsg     num-lsg   num-lsh   lsrat    time
      ------- ---------------- --------- --------- --------- ------- --------
       0.0000     -99.88133861 -1.08D-03  0.00D+00  0.00D+00 0.0D+00      0.2

 Wrote rohf: cfock to ./tce_hf_1.46688.cfock

       1.0000     -99.88191455 -7.43D-05 -7.48D-05  1.00D-03 6.9D-02      0.2

              iter       energy          gnorm     gmax       time
             ----- ------------------- --------- --------- --------
                 4      -99.8819145548  9.99D-03  5.63D-03      0.2

            ----- linear solve (tol: 1.0E-02 prod-acc: 1.2E-10) -----

               iter nbas    rnorm     rnorm-scal   ratio     time
               ---- ---- ----------- ----------- --------- -------
 rohf_wrap: in g_x =    1              0.00999301
 rohf_wrap: out g_x =    1              0.00250356
                  1    1  6.0117E-03  6.0159E-01    0.0000     0.2
 rohf_wrap: in g_x =    1              0.00601171
 rohf_wrap: out g_x =    1              0.00099611
                  2    2  1.6748E-03  1.6759E-01    0.2786     0.2
 rohf_wrap: in g_x =    1              0.00167478
 rohf_wrap: out g_x =    1              0.00031606
                  3    3  8.8165E-05  8.8227E-03    0.0526     0.2

                              ----- Line search ------

        step       energy         lsg     num-lsg   num-lsh   lsrat    time
      ------- ---------------- --------- --------- --------- ------- --------
       0.0000     -99.88191455 -3.00D-05  0.00D+00  0.00D+00 0.0D+00      0.2

 Wrote rohf: cfock to ./tce_hf_1.46688.cfock

       1.0000     -99.88192952  3.16D-08  2.55D-08  3.00D-05 1.1D-03      0.2

              iter       energy          gnorm     gmax       time
             ----- ------------------- --------- --------- --------
                 5      -99.8819295237  8.97D-05  4.44D-05      0.2

            ----- linear solve (tol: 9.0E-05 prod-acc: 9.6E-15) -----

               iter nbas    rnorm     rnorm-scal   ratio     time
               ---- ---- ----------- ----------- --------- -------
 rohf_wrap: in g_x =    1              0.00008971
 rohf_wrap: out g_x =    1              0.00000713
                  1    1  1.5046E-05  1.6773E-01    0.0000     0.2
 rohf_wrap: in g_x =    1              0.00001505
 rohf_wrap: out g_x =    1              0.00000222
                  2    2  4.5768E-06  5.1020E-02    0.3042     0.2
 rohf_wrap: in g_x =    1              0.00000458
 rohf_wrap: out g_x =    1              0.00000056
                  3    3  5.8678E-07  6.5412E-03    0.1282     0.2
 rohf_wrap: in g_x =    1              0.00000059
 rohf_wrap: out g_x =    1              0.00000012
                  4    4  1.6153E-07  1.8006E-03    0.2753     0.2
 rohf_wrap: in g_x =    1              0.00000016
 rohf_wrap: out g_x =    1              0.00000003
                  5    5  3.1100E-08  3.4669E-04    0.1925     0.2
 rohf_wrap: in g_x =    1              0.00000003
 rohf_wrap: out g_x =    1              0.00000001
                  6    6  2.9067E-09  3.2402E-05    0.0935     0.2

                              ----- Line search ------

        step       energy         lsg     num-lsg   num-lsh   lsrat    time
      ------- ---------------- --------- --------- --------- ------- --------
       0.0000     -99.88192952 -5.10D-10  0.00D+00  0.00D+00 0.0D+00      0.2

 Wrote rohf: cfock to ./tce_hf_1.46688.cfock

       1.0000     -99.88192952  2.17D-16 -2.23D-13  5.10D-10 4.3D-07      0.2

              iter       energy          gnorm     gmax       time
             ----- ------------------- --------- --------- --------
                 6      -99.8819295239  2.88D-09  1.56D-09      0.2

            ----- linear solve (tol: 3.5E-03 prod-acc: 1.2E-17) -----

               iter nbas    rnorm     rnorm-scal   ratio     time
               ---- ---- ----------- ----------- --------- -------
 rohf_wrap: in g_x =    1              0.00000000
 rohf_wrap: out g_x =    1              0.00000000
                  1    1  4.9193E-10  1.7070E-01    0.0000     0.2
 rohf_wrap: in g_x =    1              0.00000000
 rohf_wrap: out g_x =    1              0.00000000
                  2    2  1.3691E-10  4.7506E-02    0.2783     0.2
 rohf_wrap: in g_x =    1              0.00000000
 rohf_wrap: out g_x =    1              0.00000000
                  3    3  3.3088E-11  1.1481E-02    0.2417     0.2
 rohf_wrap: in g_x =    1              0.00000000
 rohf_wrap: out g_x =    1              0.00000000
                  4    4  7.2180E-12  2.5046E-03    0.2181     0.2

                              ----- Line search ------

        step       energy         lsg     num-lsg   num-lsh   lsrat    time
      ------- ---------------- --------- --------- --------- ------- --------
       0.0000     -99.88192952 -1.03D-18  0.00D+00  0.00D+00 0.0D+00      0.2

 Wrote rohf: cfock to ./tce_hf_1.46688.cfock

       1.0000     -99.88192952  4.96D-22  1.56D-13  1.03D-18 4.8D-04      0.2

              iter       energy          gnorm     gmax       time
             ----- ------------------- --------- --------- --------
                 7      -99.8819295239  7.22D-12  3.51D-12      0.2

 Wrote molecular orbitals to ./tce_hf_1.46688.movecs



       Final RHF  results 
       ------------------ 

         Total SCF energy =    -99.881929523924
      One-electron energy =   -147.198090084788
      Two-electron energy =     44.069408787715
 Nuclear repulsion energy =      3.246751773149

        Time for solution =      0.1s


             Final eigenvalues
             -----------------

              1      
    1  -26.2797
    2   -1.4870
    3   -0.5951
    4   -0.5951
    5   -0.5726
    6    0.0258
    7    0.5791
    8    1.3144
    9    1.3144
   10    1.4961
   11    1.6053
   12    1.6053
   13    1.6248
   14    2.3033
   15    4.0399
   16    4.0399
   17    4.0400
   18    4.0400
   19    4.2540

                       ROHF Final Molecular Orbital Analysis
                       -------------------------------------

 Vector    1  Occ=2.000000D+00  E=-2.627972D+01
              MO Center= -5.6D-22, -3.5D-21, -1.5D-01, r^2= 1.2D-02
   Bfn.  Coefficient  Atom+Function         Bfn.  Coefficient  Atom+Function  
  ----- ------------  ---------------      ----- ------------  ---------------
     6      1.000530  2 F  s          

 Vector    2  Occ=2.000000D+00  E=-1.487010D+00
              MO Center=  2.8D-17,  5.8D-17, -1.2D-01, r^2= 3.6D-01
   Bfn.  Coefficient  Atom+Function         Bfn.  Coefficient  Atom+Function  
  ----- ------------  ---------------      ----- ------------  ---------------
     8      0.571436  2 F  s                  7      0.495068  2 F  s          

 Vector    3  Occ=2.000000D+00  E=-5.951313D-01
              MO Center= -5.6D-18,  8.1D-18, -1.4D-01, r^2= 4.4D-01
   Bfn.  Coefficient  Atom+Function         Bfn.  Coefficient  Atom+Function  
  ----- ------------  ---------------      ----- ------------  ---------------
    10      0.647377  2 F  py                13      0.464187  2 F  py         
     9     -0.175591  2 F  px         

 Vector    4  Occ=2.000000D+00  E=-5.951313D-01
              MO Center=  2.4D-17, -8.7D-20, -1.4D-01, r^2= 4.4D-01
   Bfn.  Coefficient  Atom+Function         Bfn.  Coefficient  Atom+Function  
  ----- ------------  ---------------      ----- ------------  ---------------
     9      0.647377  2 F  px                12      0.464187  2 F  px         
    10      0.175591  2 F  py         

 Vector    5  Occ=2.000000D+00  E=-5.726458D-01
              MO Center= -2.4D-18, -5.8D-18,  2.5D-01, r^2= 9.3D-01
   Bfn.  Coefficient  Atom+Function         Bfn.  Coefficient  Atom+Function  
  ----- ------------  ---------------      ----- ------------  ---------------
    11      0.516038  2 F  pz                14      0.390771  2 F  pz         
     1      0.298352  1 H  s                  2      0.194565  1 H  s          

 Vector    6  Occ=0.000000D+00  E= 2.581058D-02
              MO Center=  2.1D-18,  6.1D-18,  1.1D+00, r^2= 1.6D+00
   Bfn.  Coefficient  Atom+Function         Bfn.  Coefficient  Atom+Function  
  ----- ------------  ---------------      ----- ------------  ---------------
     2      0.752723  1 H  s                 14     -0.390823  2 F  pz         
    11     -0.362797  2 F  pz                 1      0.336471  1 H  s          
     8     -0.269496  2 F  s          

 Vector    7  Occ=0.000000D+00  E= 5.791223D-01
              MO Center= -2.6D-17, -2.2D-17,  1.4D+00, r^2= 1.7D+00
   Bfn.  Coefficient  Atom+Function         Bfn.  Coefficient  Atom+Function  
  ----- ------------  ---------------      ----- ------------  ---------------
     1      1.285247  1 H  s                  2     -1.283088  1 H  s          
     8      0.273590  2 F  s                 11     -0.180366  2 F  pz         

 Vector    8  Occ=0.000000D+00  E= 1.314406D+00
              MO Center= -2.7D-18, -1.3D-17,  7.6D-01, r^2= 1.1D+00
   Bfn.  Coefficient  Atom+Function         Bfn.  Coefficient  Atom+Function  
  ----- ------------  ---------------      ----- ------------  ---------------
     4      0.708832  1 H  py                10     -0.570897  2 F  py         
    13      0.556401  2 F  py                 3     -0.204196  1 H  px         
     9      0.164460  2 F  px                12     -0.160285  2 F  px         

 Vector    9  Occ=0.000000D+00  E= 1.314406D+00
              MO Center=  1.8D-16,  5.0D-17,  7.6D-01, r^2= 1.1D+00
   Bfn.  Coefficient  Atom+Function         Bfn.  Coefficient  Atom+Function  
  ----- ------------  ---------------      ----- ------------  ---------------
     3      0.708832  1 H  px                 9     -0.570897  2 F  px         
    12      0.556401  2 F  px                 4      0.204196  1 H  py         
    10     -0.164460  2 F  py                13      0.160285  2 F  py         

 Vector   10  Occ=0.000000D+00  E= 1.496091D+00
              MO Center=  4.5D-17, -9.5D-18,  9.8D-01, r^2= 7.4D-01
   Bfn.  Coefficient  Atom+Function         Bfn.  Coefficient  Atom+Function  
  ----- ------------  ---------------      ----- ------------  ---------------
     5      0.792948  1 H  pz                11      0.485727  2 F  pz         
     7      0.471791  2 F  s                  8     -0.295396  2 F  s          
    14     -0.242802  2 F  pz                 6      0.166318  2 F  s          
     1      0.158347  1 H  s          

 Vector   11  Occ=0.000000D+00  E= 1.605349D+00
              MO Center=  7.2D-17,  2.6D-15,  3.9D-01, r^2= 1.3D+00
   Bfn.  Coefficient  Atom+Function         Bfn.  Coefficient  Atom+Function  
  ----- ------------  ---------------      ----- ------------  ---------------
    13      0.882679  2 F  py                10     -0.719346  2 F  py         
     4     -0.688111  1 H  py         

 Vector   12  Occ=0.000000D+00  E= 1.605349D+00
              MO Center= -7.0D-15,  2.0D-16,  3.9D-01, r^2= 1.3D+00
   Bfn.  Coefficient  Atom+Function         Bfn.  Coefficient  Atom+Function  
  ----- ------------  ---------------      ----- ------------  ---------------
    12      0.882679  2 F  px                 9     -0.719346  2 F  px         
     3     -0.688111  1 H  px         

 Vector   13  Occ=0.000000D+00  E= 1.624791D+00
              MO Center=  7.0D-15, -2.9D-15, -5.6D-01, r^2= 7.7D-01
   Bfn.  Coefficient  Atom+Function         Bfn.  Coefficient  Atom+Function  
  ----- ------------  ---------------      ----- ------------  ---------------
    14      1.038069  2 F  pz                11     -0.773943  2 F  pz         
     7      0.727694  2 F  s                  8     -0.612466  2 F  s          
     5      0.356458  1 H  pz                 6      0.278688  2 F  s          
     1     -0.276781  1 H  s          

 Vector   14  Occ=0.000000D+00  E= 2.303321D+00
              MO Center= -1.3D-16,  6.0D-17,  3.9D-01, r^2= 1.1D+00
   Bfn.  Coefficient  Atom+Function         Bfn.  Coefficient  Atom+Function  
  ----- ------------  ---------------      ----- ------------  ---------------
     8      1.669773  2 F  s                  7     -1.392309  2 F  s          
    14      0.762445  2 F  pz                 5      0.757544  1 H  pz         
     6     -0.598700  2 F  s                  2     -0.442384  1 H  s          
    11     -0.319132  2 F  pz                 1     -0.172753  1 H  s          

 Vector   15  Occ=0.000000D+00  E= 4.039898D+00
              MO Center= -1.1D-16,  9.2D-16, -1.5D-01, r^2= 3.0D-01
   Bfn.  Coefficient  Atom+Function         Bfn.  Coefficient  Atom+Function  
  ----- ------------  ---------------      ----- ------------  ---------------
    19      0.946083  2 F  d  2              15     -0.323923  2 F  d -2       

 Vector   16  Occ=0.000000D+00  E= 4.039898D+00
              MO Center=  9.8D-16,  8.3D-17, -1.5D-01, r^2= 3.0D-01
   Bfn.  Coefficient  Atom+Function         Bfn.  Coefficient  Atom+Function  
  ----- ------------  ---------------      ----- ------------  ---------------
    15      0.946083  2 F  d -2              19      0.323923  2 F  d  2       

 Vector   17  Occ=0.000000D+00  E= 4.040012D+00
              MO Center=  4.3D-18,  1.7D-17, -1.4D-01, r^2= 3.1D-01
   Bfn.  Coefficient  Atom+Function         Bfn.  Coefficient  Atom+Function  
  ----- ------------  ---------------      ----- ------------  ---------------
    18      0.903881  2 F  d  1              16      0.427360  2 F  d -1       

 Vector   18  Occ=0.000000D+00  E= 4.040012D+00
              MO Center= -8.5D-16, -1.0D-15, -1.4D-01, r^2= 3.1D-01
   Bfn.  Coefficient  Atom+Function         Bfn.  Coefficient  Atom+Function  
  ----- ------------  ---------------      ----- ------------  ---------------
    16      0.903881  2 F  d -1              18     -0.427360  2 F  d  1       

 Vector   19  Occ=0.000000D+00  E= 4.254041D+00
              MO Center= -1.6D-17,  1.5D-18, -4.9D-02, r^2= 4.5D-01
   Bfn.  Coefficient  Atom+Function         Bfn.  Coefficient  Atom+Function  
  ----- ------------  ---------------      ----- ------------  ---------------
    17      1.001933  2 F  d  0               5      0.365242  1 H  pz         
     8      0.341103  2 F  s                 14      0.282424  2 F  pz         
     7     -0.229519  2 F  s                  1     -0.163489  1 H  s          


 center of mass
 --------------
 x =   0.00000000 y =   0.00000000 z =  -0.13755898

 moments of inertia (a.u.)
 ------------------
           7.354003831073           0.000000000000           0.000000000000
           0.000000000000           7.354003831073           0.000000000000
           0.000000000000           0.000000000000           0.000000000000

  Mulliken analysis of the total density
  --------------------------------------

   Bfn.    Population  Atom+Function
   ---------------------------------
     1      0.368318    1 H  s          
     2      0.216672    1 H  s          
     3      0.002516    1 H  px         
     4      0.002516    1 H  py         
     5      0.013416    1 H  pz         
     6      2.001034    2 F  s          
     7      0.908050    2 F  s          
     8      1.071959    2 F  s          
     9      1.216573    2 F  px         
    10      1.216573    2 F  py         
    11      0.768782    2 F  pz         
    12      0.780835    2 F  px         
    13      0.780835    2 F  py         
    14      0.650809    2 F  pz         
    15      0.000000    2 F  d -2       
    16      0.000076    2 F  d -1       
    17      0.000959    2 F  d  0       
    18      0.000076    2 F  d  1       
    19      0.000000    2 F  d  2       

    Atom       Charge   Shell Charges
 -----------   ------   -------------------------------------------------------
    1 H    1     0.60   0.37  0.22  0.02
    2 F    9     9.40   2.00  0.91  1.07  3.20  2.21  0.00

       Multipole analysis of the density wrt the origin
       ------------------------------------------------

     L   x y z        total         open         nuclear
     -   - - -        -----         ----         -------
     0   0 0 0     -0.000000      0.000000     10.000000

     1   1 0 0     -0.000000      0.000000      0.000000
     1   0 1 0     -0.000000      0.000000      0.000000
     1   0 0 1      1.145196      0.000000     -0.000000

     2   2 0 0     -4.325993      0.000000      0.000000
     2   1 1 0      0.000000      0.000000      0.000000
     2   1 0 1     -0.000000      0.000000      0.000000
     2   0 2 0     -4.325993      0.000000      0.000000
     2   0 1 1     -0.000000      0.000000      0.000000
     2   0 0 2     -0.969183      0.000000      6.915592


 Wrote molecular orbitals to ./tce_hf_1.46688.movecs


 Parallel integral file used       1 records with       0 large values


 Read molecular orbitals from ./tce_hf_1.46688.movecs


 Schwarz integral screening summary 
 ---------------------------------- 

        No. of atom pairs =       3
       No. of shell pairs =      45

 Atomic screening 

   value      no.     value      no.     value      no.     value      no.   
  -------- ------    -------- ------    -------- ------    -------- ------   
  0.00D+00      0    1.00D-13      0    1.00D-12      0    1.00D-11      0
  1.00D-10      0    1.00D-09      0    1.00D-08      0    1.00D-07      0
  1.00D-06      0    1.00D-05      0    1.00D-04      0    1.00D-03      0
  1.00D-02      0    1.00D-01      0    1.00D+00      3    1.00D+01      0


 Shell screening 

   value      no.     value      no.     value      no.     value      no.   
  -------- ------    -------- ------    -------- ------    -------- ------   
  0.00D+00      0    1.00D-13      0    1.00D-12      0    1.00D-11      0
  1.00D-10      0    1.00D-09      0    1.00D-08      0    1.00D-07      0
  1.00D-06      0    1.00D-05      0    1.00D-04      0    1.00D-03      0
  1.00D-02      2    1.00D-01     17    1.00D+00     26    1.00D+01      0


                   NWChem Extensible Many-Electron Theory Module
                   ---------------------------------------------

              ======================================================
                   This portion of the program was automatically
                  generated by a Tensor Contraction Engine (TCE).
                  The development of this portion of the program
                 and TCE was supported by US Department of Energy,
                Office of Science, Office of Basic Energy Science.
                      TCE is a product of Battelle and PNNL.
              Please cite: S.Hirata, J.Phys.Chem.A 107, 9887 (2003).
              ======================================================

            General Information
            -------------------
      Number of processors :     1
         Wavefunction type : Restricted Hartree-Fock
          No. of electrons :    10
           Alpha electrons :     5
            Beta electrons :     5
           No. of orbitals :    38
            Alpha orbitals :    19
             Beta orbitals :    19
        Alpha frozen cores :     0
         Beta frozen cores :     0
     Alpha frozen virtuals :     0
      Beta frozen virtuals :     0
         Spin multiplicity : singlet 
    Number of AO functions :    19
       Number of AO shells :     9
        Use of symmetry is : off
      Symmetry adaption is : off
         Schwarz screening : 0.10D-09

          Correlation Information
          -----------------------
          Calculation type : Coupled-cluster singles & doubles                           
   Perturbative correction : none                                                        
            Max iterations :      100
        Residual threshold : 0.10D-07
     T(0) DIIS level shift : 0.00D+00
     L(0) DIIS level shift : 0.00D+00
     T(1) DIIS level shift : 0.00D+00
     L(1) DIIS level shift : 0.00D+00
     T(R) DIIS level shift : 0.00D+00
     T(I) DIIS level shift : 0.00D+00
   CC-T/L Amplitude update :  5-th order DIIS
                I/O scheme : Global Array Library
        L-threshold :  0.10D-07
        EOM-threshold :  0.10D-07
 no EOMCCSD initial starts read in
 TCE RESTART OPTIONS
 READ_INT:   F
 WRITE_INT:  F
 READ_TA:    F
 WRITE_TA:   F
 READ_XA:    F
 WRITE_XA:   F
 READ_IN3:   F
 WRITE_IN3:  F
 SLICE:      F
 D4D5:       F
 quantumc:   F
 qrotation:  F
 qducc:      T
 nacto:                         0
 nrotv:                         0
 nrot:                          0

            Memory Information
            ------------------
          Available GA space size is     402652823 doubles
          Available MA space size is     402651564 doubles

 Maximum block size        32 doubles

 tile_dim =     14

 Block   Spin    Irrep     Size     Offset   Alpha
 -------------------------------------------------
   1    alpha     a      5 doubles       0       1
   2    beta      a      5 doubles       5       1
   3    alpha     a     14 doubles      10       3
   4    beta      a     14 doubles      24       3

 Global array virtual files algorithm will be used

 Parallel file system coherency ......... OK

 Setting fock-build task_bf   :      -1
                    maxquartet:   10000
                    maxeri    :  129600
                    maxscr    :       0
                    intacc    : 0.0D+00
                    denscreen : T
                    dentol    : 1.0D-06

   0: nuse=   1(   0.9) avail=   434881Mb (out of   434881Mb) on .

 #quartets = 1.035D+03 #integrals = 4.841D+03 #direct =  0.0% #cached =100.0%


 Integral file          = ./tce_hf_1.46688.aoints.0
 Record size in doubles =  65536        No. of integs per rec  =  43688
 Max. records in memory =      2        Max. records in file   = 826273
 No. of bits per label  =      8        No. of bits per value  =     64


 Fock matrix recomputed
 1-e file size   =              361
 1-e file name   = ./tce_hf_1.46688.f1
 Cpu & wall time / sec            0.0            0.0
 4-electron integrals stored in orbital form

 v2    file size   =            64311
 4-index algorithm nr.  13 is used
 imaxsize =       30
 imaxsize ichop =        0
 Cpu & wall time / sec            0.1            0.1
 T1-number-of-tasks                    1

 t1 file size   =               70
 t1 file name   = ./tce_hf_1.46688.t1
 t1 file handle =       -998
 T2-number-of-boxes                    2

 t2 file size   =             9800
 t2 file name   = ./tce_hf_1.46688.t2
 t2 file handle =       -996

 CCSD iterations
 -----------------------------------------------------------------
 Iter          Residuum       Correlation     Cpu    Wall    V2*C2
 -----------------------------------------------------------------
    1   0.1294973618352  -0.2264365700784     0.0     0.0     0.0
    2   0.0416039635316  -0.2264503441857     0.0     0.0     0.0
    3   0.0196418823393  -0.2315474637579     0.0     0.0     0.0
    4   0.0104235453309  -0.2330101206466     0.0     0.0     0.0
    5   0.0056400183980  -0.2339003322770     0.0     0.0     0.0
 MICROCYCLE DIIS UPDATE:                    5                    5
    6   0.0009885811424  -0.2347793708454     0.0     0.0     0.0
    7   0.0006570754767  -0.2348284874907     0.0     0.0     0.0
    8   0.0002518205398  -0.2348553103470     0.0     0.0     0.0
    9   0.0001775686523  -0.2348582853700     0.0     0.0     0.0
   10   0.0000833829094  -0.2348680883038     0.0     0.0     0.0
 MICROCYCLE DIIS UPDATE:                   10                    5
   11   0.0000124353478  -0.2348767972329     0.0     0.0     0.0
   12   0.0000044251942  -0.2348773596166     0.0     0.0     0.0
   13   0.0000019046062  -0.2348776852258     0.0     0.0     0.0
   14   0.0000009221813  -0.2348778277421     0.0     0.0     0.0
   15   0.0000004480751  -0.2348778814021     0.0     0.0     0.0
 MICROCYCLE DIIS UPDATE:                   15                    5
   16   0.0000000891014  -0.2348779363684     0.0     0.0     0.0
   17   0.0000000466844  -0.2348779440428     0.0     0.0     0.0
   18   0.0000000258395  -0.2348779458695     0.0     0.0     0.0
   19   0.0000000148770  -0.2348779473263     0.0     0.0     0.0
   20   0.0000000086197  -0.2348779481641     0.0     0.0     0.0
 -----------------------------------------------------------------
 Iterations converged
 CCSD correlation energy / hartree =        -0.234877948164140
 CCSD total energy / hartree       =      -100.116807472087984

 Singles contributions

 Doubles contributions
     6a   (alpha)     6a   (beta ) ---     5a   (alpha)     5a   (beta )       -0.1940258345
 Ground state specification:
 exp(T)|Ref>~(1+T)|Ref>
 ------- a(p)+/a(q) strings ----------

 singles norm

 doubles norm

 Reference string
  0.98169230491892845      :(1a)+ (2a)+ (3a)+ (4a)+ (5a)+ (1b)+ (2b)+ (3b)+ (4b)+ (5b)+ |0>

 Singles strings

 Doubles strings
 -0.19047366868667670      :(6a)+ (6b)+ (5b)  (5a)  (1a)+ (2a)+ (3a)+ (4a)+ (5a)+ (1b)+ (2b)+ (3b)+ (4b)+ (5b)+ |0>
 -------------------------------------
 enrep_tce =    3.2467517731493261     
  EHF(total)         =       -99.88192952
  Shift (HFtot-HFA)  =         0.00000000
 ALL OCCUPIED ORBITALS ARE ACTIVE IN DUCC --> NO SHIFT
 Number of active orbitals                   10
 Number of active alpha electrons                    5
 Number of active beta electrons                    5
  nos                    10
  nvs                    28
 noas                     5
 nobs                     5
 nvas                    14
 nvbs                    14
 nactv                     5
 From DUCC CCSD corr. ene. -0.23487794816419783     
 From DUCC CCSD corr. ene.-e-part  0.16195820919190518     
 begin_one_electron_integrals
    1    1       -40.7779388347
    1    2         0.7503020284
    1    5        -0.0812124016
    1    6        -0.1055371781
    1    7         0.0055061469
    1   10         0.2458639408
    2    1         0.7503020284
    2    2        -9.2125072759
    2    5         0.3217025310
    2    6         0.5794645567
    2    7        -0.0213260837
    2   10        -0.8006673427
    3    3        -8.3388346592
    3    8         1.5529754819
    3    9         0.0242545125
    4    4        -8.3388346592
    4    8        -0.0242545125
    4    9         1.5529754819
    5    1        -0.0812124016
    5    2         0.3217025310
    5    5        -6.9833713158
    5    6         1.9064353393
    5    7         0.4911715759
    5   10        -0.8113745151
    6    1        -0.1055371781
    6    2         0.5794645567
    6    5         1.9064353393
    6    6        -4.5125285882
    6    7        -0.9460272411
    6   10         1.4439782998
    7    1         0.0055061469
    7    2        -0.0213260837
    7    5         0.4911715759
    7    6        -0.9460272411
    7    7        -2.7470554681
    7   10         0.6582860165
    8    3         1.5529754819
    8    4        -0.0242545125
    8    8        -3.8523263791
    9    3         0.0242545125
    9    4         1.5529754819
    9    9        -3.8523263791
   10    1         0.2458639408
   10    2        -0.8006673427
   10    5        -0.8113745151
   10    6         1.4439782998
   10    7         0.6582860165
   10   10        -3.9232701318
 end_one_electron_integrals
 begin_two_electron_integrals
    1    1    1    1        5.3566256211
    2    1    1    1       -0.5366370516
    2    2    1    1        1.2722948441
    2    1    2    1        0.0854976841
    2    2    2    1       -0.0239548045
    2    2    2    2        0.8833248661
    3    3    1    1        1.2292641093
    3    3    2    1       -0.0162715251
    3    3    2    2        0.8568955605
    3    1    3    1        0.0371300518
    3    2    3    1        0.0397831299
    3    2    3    2        0.1662618960
    3    3    3    3        0.8867222462
    4    4    1    1        1.2292641093
    4    4    2    1       -0.0162715251
    4    4    2    2        0.8568955605
    4    4    3    3        0.8043424143
    4    1    4    1        0.0371300518
    4    2    4    1        0.0397831299
    4    2    4    2        0.1662618960
    4    3    4    3        0.0391192902
    4    4    4    4        0.8867222462
    5    1    1    1        0.0621407969
    5    2    1    1       -0.0792002296
    5    5    1    1        0.9468516274
    5    1    2    1       -0.0094310953
    5    1    2    2        0.0039976775
    5    2    2    1        0.0033391083
    5    2    2    2       -0.0323967412
    5    5    2    1       -0.0105976872
    5    5    2    2        0.7045495987
    5    1    3    3        0.0019512010
    5    2    3    3       -0.0384272326
    5    3    3    1       -0.0042113825
    5    3    3    2       -0.0140014972
    5    5    3    3        0.6615568148
    5    1    4    4        0.0019512010
    5    2    4    4       -0.0384272326
    5    4    4    1       -0.0042113825
    5    4    4    2       -0.0140014972
    5    5    4    4        0.6615568148
    5    1    5    1        0.0245341080
    5    2    5    1        0.0256660880
    5    2    5    2        0.1286979528
    5    3    5    3        0.0296728757
    5    4    5    4        0.0296728757
    5    5    5    1       -0.0013693524
    5    5    5    2       -0.0104089258
    5    5    5    5        0.6485481165
    6    1    1    1        0.0797641337
    6    2    1    1       -0.1101140174
    6    5    1    1       -0.3415241706
    6    6    1    1        0.5736263564
    6    1    2    1       -0.0134662027
    6    1    2    2        0.0024559236
    6    2    2    1        0.0027385301
    6    2    2    2       -0.0634141236
    6    5    2    1        0.0043352281
    6    5    2    2       -0.2132121198
    6    6    2    1       -0.0050806976
    6    6    2    2        0.4623681779
    6    1    3    3        0.0017622545
    6    2    3    3       -0.0604298433
    6    3    3    1       -0.0051255396
    6    3    3    2       -0.0172188234
    6    5    3    3       -0.1955414387
    6    6    3    3        0.4407514391
    6    1    4    4        0.0017622545
    6    2    4    4       -0.0604298433
    6    4    4    1       -0.0051255396
    6    4    4    2       -0.0172188234
    6    5    4    4       -0.1955414387
    6    6    4    4        0.4407514391
    6    1    5    1       -0.0152538984
    6    1    5    2       -0.0191054070
    6    1    5    5        0.0033665942
    6    2    5    1       -0.0170414494
    6    2    5    2       -0.0657683311
    6    2    5    5       -0.0323516251
    6    3    5    3       -0.0163446690
    6    4    5    4       -0.0163446690
    6    5    5    1       -0.0004030113
    6    5    5    2        0.0381742372
    6    5    5    5       -0.1241594810
    6    6    5    1        0.0068306499
    6    6    5    2        0.0374377555
    6    6    5    5        0.4786047432
    6    1    6    1        0.0138318626
    6    2    6    1        0.0116143183
    6    2    6    2        0.0540400695
    6    3    6    3        0.0179683414
    6    4    6    4        0.0179683414
    6    5    6    1       -0.0005656901
    6    5    6    2        0.0234022042
    6    5    6    5        0.1432347299
    6    6    6    1       -0.0034170923
    6    6    6    2       -0.0247017889
    6    6    6    5        0.0065410834
    6    6    6    6        0.4594433251
    7    1    1    1       -0.0048209257
    7    2    1    1        0.0040014619
    7    5    1    1       -0.1149214459
    7    6    1    1        0.1393058525
    7    7    1    1        0.3428424588
    7    1    2    1        0.0007612091
    7    1    2    2       -0.0004989417
    7    2    2    1       -0.0001746658
    7    2    2    2        0.0032475281
    7    5    2    1        0.0027219464
    7    5    2    2       -0.0512374028
    7    6    2    1       -0.0020691791
    7    6    2    2        0.0957906803
    7    7    2    1       -0.0008956691
    7    7    2    2        0.3277355720
    7    1    3    3       -0.0002635596
    7    2    3    3        0.0002797281
    7    3    3    1       -0.0007836687
    7    3    3    2       -0.0070306380
    7    5    3    3       -0.0500646517
    7    6    3    3        0.0863943938
    7    7    3    3        0.3146636636
    7    1    4    4       -0.0002635596
    7    2    4    4        0.0002797281
    7    4    4    1       -0.0007836687
    7    4    4    2       -0.0070306380
    7    5    4    4       -0.0500646517
    7    6    4    4        0.0863943938
    7    7    4    4        0.3146636636
    7    1    5    1       -0.0077903813
    7    1    5    2       -0.0080811304
    7    1    5    5        0.0010019526
    7    2    5    1       -0.0058843558
    7    2    5    2       -0.0187577438
    7    2    5    5        0.0158247158
    7    3    5    3       -0.0060167336
    7    4    5    4       -0.0060167336
    7    5    5    1        0.0024147248
    7    5    5    2        0.0348358608
    7    5    5    5        0.0065004241
    7    6    5    1        0.0013823001
    7    6    5    2        0.0130327263
    7    6    5    5        0.1174540126
    7    7    5    1        0.0031441076
    7    7    5    2        0.0522825720
    7    7    5    5        0.4060081156
    7    1    6    1        0.0053137658
    7    1    6    2        0.0052152407
    7    1    6    5       -0.0001946462
    7    1    6    6       -0.0017548310
    7    2    6    1        0.0043572613
    7    2    6    2        0.0157141411
    7    2    6    5        0.0032079298
    7    2    6    6        0.0101439829
    7    3    6    3        0.0057763903
    7    4    6    4        0.0057763903
    7    5    6    1       -0.0023356038
    7    5    6    2        0.0024511239
    7    5    6    5        0.0709552549
    7    5    6    6        0.0489005043
    7    6    6    1       -0.0004560314
    7    6    6    2       -0.0036400167
    7    6    6    5        0.0135310469
    7    6    6    6        0.0999154790
    7    7    6    1       -0.0018227874
    7    7    6    2       -0.0029413162
    7    7    6    5        0.0899482323
    7    7    6    6        0.4432114017
    7    1    7    1        0.0025452140
    7    2    7    1        0.0019286684
    7    2    7    2        0.0087936478
    7    3    7    3        0.0041364304
    7    4    7    4        0.0041364304
    7    5    7    1       -0.0008750834
    7    5    7    2        0.0070950960
    7    5    7    5        0.0677708032
    7    6    7    1       -0.0002813210
    7    6    7    2        0.0116203316
    7    6    7    5        0.0531713445
    7    6    7    6        0.0851186196
    7    7    7    1       -0.0008040809
    7    7    7    2        0.0194335604
    7    7    7    5        0.1106326098
    7    7    7    6        0.1295605546
    7    7    7    7        0.5226708045
    8    3    1    1       -0.3542294347
    8    4    1    1        0.0055323876
    8    8    1    1        0.6607638085
    8    3    2    1        0.0097589461
    8    3    2    2       -0.1514427424
    8    4    2    1       -0.0001524161
    8    4    2    2        0.0023652465
    8    8    2    1       -0.0088116264
    8    8    2    2        0.5062547331
    8    1    3    1       -0.0296232205
    8    1    3    2       -0.0283289924
    8    2    3    1       -0.0164127100
    8    2    3    2       -0.0368934547
    8    3    3    3       -0.1618419780
    8    4    3    3        0.0021849723
    8    5    3    1        0.0040947682
    8    5    3    2        0.0212800846
    8    6    3    1        0.0033358565
    8    6    3    2        0.0181400043
    8    7    3    1       -0.0004342408
    8    7    3    2       -0.0034071983
    8    8    3    3        0.5100189514
    8    1    4    1        0.0004626582
    8    1    4    2        0.0004424448
    8    2    4    1        0.0002563352
    8    2    4    2        0.0005762053
    8    3    4    3        0.0001711277
    8    3    4    4       -0.1399000880
    8    4    4    3       -0.0109848746
    8    4    4    4        0.0025276627
    8    5    4    1       -0.0000639525
    8    5    4    2       -0.0003323543
    8    6    4    1       -0.0000520997
    8    6    4    2       -0.0002833122
    8    7    4    1        0.0000067820
    8    7    4    2        0.0000532139
    8    8    4    3       -0.0004379220
    8    8    4    4        0.4819863822
    8    1    5    3        0.0032534650
    8    1    5    4       -0.0000508129
    8    2    5    3        0.0097983503
    8    2    5    4       -0.0001530315
    8    3    5    1       -0.0002006339
    8    3    5    2        0.0252820281
    8    3    5    5       -0.0869019514
    8    4    5    1        0.0000031335
    8    4    5    2       -0.0003948570
    8    4    5    5        0.0013572426
    8    5    5    3       -0.0007959287
    8    5    5    4        0.0000124309
    8    6    5    3        0.0092943761
    8    6    5    4       -0.0001451604
    8    7    5    3        0.0052485129
    8    7    5    4       -0.0000819718
    8    8    5    1        0.0037527065
    8    8    5    2        0.0370500722
    8    8    5    5        0.5167570565
    8    1    6    3        0.0034511096
    8    1    6    4       -0.0000538997
    8    2    6    3        0.0058432563
    8    2    6    4       -0.0000912605
    8    3    6    1       -0.0018777104
    8    3    6    2        0.0158149635
    8    3    6    5        0.0618745838
    8    3    6    6       -0.0364824031
    8    4    6    1        0.0000293263
    8    4    6    2       -0.0002469995
    8    4    6    5       -0.0009663629
    8    4    6    6        0.0005697855
    8    5    6    3        0.0069049262
    8    5    6    4       -0.0001078418
    8    6    6    3       -0.0033934417
    8    6    6    4        0.0000529991
    8    7    6    3       -0.0015075117
    8    7    6    4        0.0000235445
    8    8    6    1       -0.0006142554
    8    8    6    2       -0.0214346965
    8    8    6    5        0.0141602316
    8    8    6    6        0.4734562658
    8    1    7    3        0.0003541627
    8    1    7    4       -0.0000055313
    8    2    7    3       -0.0024208252
    8    2    7    4        0.0000378087
    8    3    7    1       -0.0002017343
    8    3    7    2       -0.0029858197
    8    3    7    5        0.0273781738
    8    3    7    6       -0.0127972026
    8    3    7    7        0.0035912471
    8    4    7    1        0.0000031507
    8    4    7    2        0.0000466328
    8    4    7    5       -0.0004275948
    8    4    7    6        0.0001998679
    8    4    7    7       -0.0000560884
    8    5    7    3        0.0022775721
    8    5    7    4       -0.0000355713
    8    6    7    3       -0.0032951596
    8    6    7    4        0.0000514641
    8    7    7    3        0.0010444978
    8    7    7    4       -0.0000163131
    8    8    7    1       -0.0008274320
    8    8    7    2        0.0131750658
    8    8    7    5        0.0641085730
    8    8    7    6        0.1196868072
    8    8    7    7        0.4658123922
    8    1    8    1        0.0226017595
    8    2    8    1        0.0120664354
    8    2    8    2        0.0282367713
    8    3    8    3        0.0887032359
    8    4    8    3       -0.0012226882
    8    4    8    4        0.0104356697
    8    5    8    1       -0.0030372206
    8    5    8    2        0.0037087793
    8    5    8    5        0.0391388114
    8    6    8    1       -0.0021809882
    8    6    8    2        0.0072539564
    8    6    8    5        0.0347199572
    8    6    8    6        0.0495236220
    8    7    8    1        0.0003274312
    8    7    8    2        0.0042929909
    8    7    8    5        0.0200947611
    8    7    8    6        0.0256244504
    8    7    8    7        0.0258278806
    8    8    8    3       -0.0409475608
    8    8    8    4        0.0006395227
    8    8    8    8        0.5611479829
    9    3    1    1       -0.0055323876
    9    4    1    1       -0.3542294347
    9    9    1    1        0.6607638085
    9    3    2    1        0.0001524161
    9    3    2    2       -0.0023652465
    9    4    2    1        0.0097589461
    9    4    2    2       -0.1514427424
    9    9    2    1       -0.0088116264
    9    9    2    2        0.5062547331
    9    1    3    1       -0.0004626582
    9    1    3    2       -0.0004424448
    9    2    3    1       -0.0002563352
    9    2    3    2       -0.0005762053
    9    3    3    3       -0.0025276627
    9    4    3    3       -0.1399000880
    9    5    3    1        0.0000639525
    9    5    3    2        0.0003323543
    9    6    3    1        0.0000520997
    9    6    3    2        0.0002833122
    9    7    3    1       -0.0000067820
    9    7    3    2       -0.0000532139
    9    8    3    3        0.0004379220
    9    9    3    3        0.4819863822
    9    1    4    1       -0.0296232205
    9    1    4    2       -0.0283289924
    9    2    4    1       -0.0164127100
    9    2    4    2       -0.0368934547
    9    3    4    3       -0.0109570154
    9    3    4    4       -0.0021849723
    9    4    4    3       -0.0001715628
    9    4    4    4       -0.1618419780
    9    5    4    1        0.0040947682
    9    5    4    2        0.0212800846
    9    6    4    1        0.0033358565
    9    6    4    2        0.0181400043
    9    7    4    1       -0.0004342408
    9    7    4    2       -0.0034071983
    9    8    4    3        0.0140447719
    9    8    4    4       -0.0004379220
    9    9    4    3        0.0004379220
    9    9    4    4        0.5100189514
    9    1    5    3        0.0000508129
    9    1    5    4        0.0032534650
    9    2    5    3        0.0001530315
    9    2    5    4        0.0097983503
    9    3    5    1       -0.0000031335
    9    3    5    2        0.0003948570
    9    3    5    5       -0.0013572426
    9    4    5    1       -0.0002006339
    9    4    5    2        0.0252820281
    9    4    5    5       -0.0869019514
    9    5    5    3       -0.0000124309
    9    5    5    4       -0.0007959287
    9    6    5    3        0.0001451604
    9    6    5    4        0.0092943761
    9    7    5    3        0.0000819718
    9    7    5    4        0.0052485129
    9    9    5    1        0.0037527065
    9    9    5    2        0.0370500722
    9    9    5    5        0.5167570565
    9    1    6    3        0.0000538997
    9    1    6    4        0.0034511096
    9    2    6    3        0.0000912605
    9    2    6    4        0.0058432563
    9    3    6    1       -0.0000293263
    9    3    6    2        0.0002469995
    9    3    6    5        0.0009663629
    9    3    6    6       -0.0005697855
    9    4    6    1       -0.0018777104
    9    4    6    2        0.0158149635
    9    4    6    5        0.0618745838
    9    4    6    6       -0.0364824031
    9    5    6    3        0.0001078418
    9    5    6    4        0.0069049262
    9    6    6    3       -0.0000529991
    9    6    6    4       -0.0033934417
    9    7    6    3       -0.0000235445
    9    7    6    4       -0.0015075117
    9    9    6    1       -0.0006142554
    9    9    6    2       -0.0214346965
    9    9    6    5        0.0141602316
    9    9    6    6        0.4734562658
    9    1    7    3        0.0000055313
    9    1    7    4        0.0003541627
    9    2    7    3       -0.0000378087
    9    2    7    4       -0.0024208252
    9    3    7    1       -0.0000031507
    9    3    7    2       -0.0000466328
    9    3    7    5        0.0004275948
    9    3    7    6       -0.0001998679
    9    3    7    7        0.0000560884
    9    4    7    1       -0.0002017343
    9    4    7    2       -0.0029858197
    9    4    7    5        0.0273781738
    9    4    7    6       -0.0127972026
    9    4    7    7        0.0035912471
    9    5    7    3        0.0000355713
    9    5    7    4        0.0022775721
    9    6    7    3       -0.0000514641
    9    6    7    4       -0.0032951596
    9    7    7    3        0.0000163131
    9    7    7    4        0.0010444978
    9    9    7    1       -0.0008274320
    9    9    7    2        0.0131750658
    9    9    7    5        0.0641085730
    9    9    7    6        0.1196868072
    9    9    7    7        0.4658123922
    9    3    8    3        0.0012226882
    9    3    8    4        0.0129941255
    9    3    8    8       -0.0005990386
    9    4    8    3        0.0652734407
    9    4    8    4       -0.0012226882
    9    4    8    8       -0.0383554322
    9    8    8    3       -0.0000221723
    9    8    8    4       -0.0014196554
    9    9    8    3       -0.0383554322
    9    9    8    4        0.0005990386
    9    9    8    8        0.5124117512
    9    1    9    1        0.0226017595
    9    2    9    1        0.0120664354
    9    2    9    2        0.0282367713
    9    3    9    3        0.0104356697
    9    4    9    3        0.0012226882
    9    4    9    4        0.0887032359
    9    5    9    1       -0.0030372206
    9    5    9    2        0.0037087793
    9    5    9    5        0.0391388114
    9    6    9    1       -0.0021809882
    9    6    9    2        0.0072539564
    9    6    9    5        0.0347199572
    9    6    9    6        0.0495236220
    9    7    9    1        0.0003274312
    9    7    9    2        0.0042929909
    9    7    9    5        0.0200947611
    9    7    9    6        0.0256244504
    9    7    9    7        0.0258278806
    9    8    9    3       -0.0011724732
    9    8    9    4        0.0000183118
    9    8    9    8        0.0243681159
    9    9    9    3       -0.0006395227
    9    9    9    4       -0.0409475608
    9    9    9    9        0.5611479829
   10    1    1    1       -0.1896254934
   10    2    1    1        0.1965828581
   10    5    1    1        0.2036748218
   10    6    1    1       -0.2732225144
   10    7    1    1       -0.1139916054
   10   10    1    1        0.6920939899
   10    1    2    1        0.0317008827
   10    1    2    2       -0.0067824773
   10    2    2    1       -0.0078017981
   10    2    2    2        0.0786257032
   10    5    2    1       -0.0059947768
   10    5    2    2        0.0702441158
   10    6    2    1        0.0065683564
   10    6    2    2       -0.1459779632
   10    7    2    1        0.0023464313
   10    7    2    2       -0.0673635088
   10   10    2    1       -0.0091063648
   10   10    2    2        0.5343586202
   10    1    3    3       -0.0042352354
   10    2    3    3        0.0801601599
   10    3    3    1        0.0108417500
   10    3    3    2        0.0261156221
   10    5    3    3        0.0669368120
   10    6    3    3       -0.1378993229
   10    7    3    3       -0.0601014210
   10    8    3    1       -0.0082019503
   10    8    3    2       -0.0351829141
   10    9    3    1       -0.0001280988
   10    9    3    2       -0.0005494900
   10   10    3    3        0.5061361788
   10    1    4    4       -0.0042352354
   10    2    4    4        0.0801601599
   10    4    4    1        0.0108417500
   10    4    4    2        0.0261156221
   10    5    4    4        0.0669368120
   10    6    4    4       -0.1378993229
   10    7    4    4       -0.0601014210
   10    8    4    1        0.0001280988
   10    8    4    2        0.0005494900
   10    9    4    1       -0.0082019503
   10    9    4    2       -0.0351829141
   10   10    4    4        0.5061361788
   10    1    5    1        0.0158729514
   10    1    5    2        0.0207081298
   10    1    5    5       -0.0056732266
   10    2    5    1        0.0127443599
   10    2    5    2        0.0171956765
   10    2    5    5        0.0282355697
   10    3    5    3        0.0045348326
   10    4    5    4        0.0045348326
   10    5    5    1        0.0019710509
   10    5    5    2       -0.0330857790
   10    5    5    5        0.0267636328
   10    6    5    1       -0.0058937132
   10    6    5    2        0.0009029452
   10    6    5    5       -0.0906102857
   10    7    5    1       -0.0021161851
   10    7    5    2       -0.0072205807
   10    7    5    5       -0.0551708757
   10    8    5    3       -0.0101481610
   10    8    5    4        0.0001584949
   10    9    5    3       -0.0001584949
   10    9    5    4       -0.0101481610
   10   10    5    1        0.0141308994
   10   10    5    2        0.0853795401
   10   10    5    5        0.5639698451
   10    1    6    1       -0.0185085409
   10    1    6    2       -0.0116032348
   10    1    6    5        0.0014501835
   10    1    6    6        0.0027128323
   10    2    6    1       -0.0075850812
   10    2    6    2       -0.0345288723
   10    2    6    5       -0.0347135841
   10    2    6    6        0.0194558867
   10    3    6    3       -0.0128884833
   10    4    6    4       -0.0128884833
   10    5    6    1       -0.0001835167
   10    5    6    2       -0.0049966233
   10    5    6    5       -0.0461860846
   10    5    6    6        0.0230811328
   10    6    6    1        0.0025406878
   10    6    6    2        0.0261002652
   10    6    6    5        0.0870045336
   10    6    6    6        0.0066964330
   10    7    6    1        0.0009070676
   10    7    6    2        0.0114863298
   10    7    6    5        0.0342040961
   10    7    6    6       -0.0046179836
   10    8    6    3        0.0087326724
   10    8    6    4       -0.0001363877
   10    9    6    3        0.0001363877
   10    9    6    4        0.0087326724
   10   10    6    1       -0.0074315557
   10   10    6    2       -0.0459171838
   10   10    6    5        0.0142597830
   10   10    6    6        0.5216612779
   10    1    7    1       -0.0060126435
   10    1    7    2       -0.0046452182
   10    1    7    5        0.0028847583
   10    1    7    6        0.0000738062
   10    1    7    7        0.0017099226
   10    2    7    1       -0.0038950996
   10    2    7    2       -0.0104458767
   10    2    7    5       -0.0169087539
   10    2    7    6        0.0025617177
   10    2    7    7       -0.0118402860
   10    3    7    3       -0.0025614470
   10    4    7    4       -0.0025614470
   10    5    7    1       -0.0004114765
   10    5    7    2       -0.0021067494
   10    5    7    5       -0.0321089058
   10    5    7    6        0.0022958653
   10    5    7    7       -0.0217607997
   10    6    7    1        0.0015287792
   10    6    7    2        0.0048727534
   10    6    7    5        0.0352839865
   10    6    7    6        0.0042225018
   10    6    7    7        0.0407819756
   10    7    7    1        0.0005241176
   10    7    7    2       -0.0008936395
   10    7    7    5        0.0069014214
   10    7    7    6       -0.0002363923
   10    7    7    7        0.0059004534
   10    8    7    3        0.0044422046
   10    8    7    4       -0.0000693788
   10    9    7    3        0.0000693788
   10    9    7    4        0.0044422046
   10   10    7    1       -0.0038133039
   10   10    7    2        0.0120428396
   10   10    7    5        0.0832563755
   10   10    7    6        0.1430439044
   10   10    7    7        0.5128521950
   10    1    8    3        0.0034257029
   10    1    8    4       -0.0000535029
   10    1    8    8       -0.0008575366
   10    2    8    3       -0.0383533820
   10    2    8    4        0.0005990066
   10    2    8    8        0.0102682544
   10    3    8    1       -0.0078306219
   10    3    8    2       -0.0172233110
   10    3    8    5       -0.0084671618
   10    3    8    6        0.0025884929
   10    3    8    7        0.0008294960
   10    4    8    1        0.0001222994
   10    4    8    2        0.0002689952
   10    4    8    5        0.0001322409
   10    4    8    6       -0.0000404273
   10    4    8    7       -0.0000129551
   10    5    8    3       -0.0394559544
   10    5    8    4        0.0006162267
   10    5    8    8       -0.0085878525
   10    6    8    3        0.0413051429
   10    6    8    4       -0.0006451075
   10    6    8    8       -0.0132615343
   10    7    8    3        0.0156535563
   10    7    8    4       -0.0002444787
   10    7    8    8       -0.0195473024
   10    8    8    1        0.0055354775
   10    8    8    2        0.0006153302
   10    8    8    5       -0.0114513214
   10    8    8    6       -0.0057033116
   10    8    8    7       -0.0015364403
   10   10    8    3       -0.0387201978
   10   10    8    4        0.0006047356
   10   10    8    8        0.5599302694
   10    1    9    3        0.0000535029
   10    1    9    4        0.0034257029
   10    1    9    9       -0.0008575366
   10    2    9    3       -0.0005990066
   10    2    9    4       -0.0383533820
   10    2    9    9        0.0102682544
   10    3    9    1       -0.0001222994
   10    3    9    2       -0.0002689952
   10    3    9    5       -0.0001322409
   10    3    9    6        0.0000404273
   10    3    9    7        0.0000129551
   10    4    9    1       -0.0078306219
   10    4    9    2       -0.0172233110
   10    4    9    5       -0.0084671618
   10    4    9    6        0.0025884929
   10    4    9    7        0.0008294960
   10    5    9    3       -0.0006162267
   10    5    9    4       -0.0394559544
   10    5    9    9       -0.0085878525
   10    6    9    3        0.0006451075
   10    6    9    4        0.0413051429
   10    6    9    9       -0.0132615343
   10    7    9    3        0.0002444787
   10    7    9    4        0.0156535563
   10    7    9    9       -0.0195473024
   10    9    9    1        0.0055354775
   10    9    9    2        0.0006153302
   10    9    9    5       -0.0114513214
   10    9    9    6       -0.0057033116
   10    9    9    7       -0.0015364403
   10   10    9    3       -0.0006047356
   10   10    9    4       -0.0387201978
   10   10    9    9        0.5599302694
   10    1   10    1        0.0274365654
   10    2   10    1        0.0067085096
   10    2   10    2        0.0439878701
   10    3   10    3        0.0181226714
   10    4   10    4        0.0181226714
   10    5   10    1       -0.0008317454
   10    5   10    2        0.0361314967
   10    5   10    5        0.0721362323
   10    6   10    1       -0.0016068246
   10    6   10    2       -0.0250318759
   10    6   10    5       -0.0019066062
   10    6   10    6        0.0913211463
   10    7   10    1       -0.0005289060
   10    7   10    2       -0.0026138723
   10    7   10    5        0.0200316432
   10    7   10    6        0.0482426195
   10    7   10    7        0.0419447068
   10    8   10    3       -0.0032286023
   10    8   10    4        0.0000504246
   10    8   10    8        0.0369283926
   10    9   10    3       -0.0000504246
   10    9   10    4       -0.0032286023
   10    9   10    9        0.0369283926
   10   10   10    1        0.0062940237
   10   10   10    2        0.0146138024
   10   10   10    5       -0.0123152647
   10   10   10    6        0.0001262819
   10   10   10    7       -0.0247303720
   10   10   10   10        0.6758150796
 end_two_electron_integrals
 fcidump
      5.3566256211     1   1   1   1
     -0.5366370516     2   1   1   1
      0.0854976841     2   1   2   1
      1.2722948441     2   2   1   1
     -0.0239548045     2   2   2   1
      0.8833248661     2   2   2   2
      0.0371300518     3   1   3   1
      0.0397831299     3   2   3   1
      0.1662618960     3   2   3   2
      1.2292641093     3   3   1   1
     -0.0162715251     3   3   2   1
      0.8568955605     3   3   2   2
      0.8867222462     3   3   3   3
      0.0371300518     4   1   4   1
      0.0397831299     4   2   4   1
      0.1662618960     4   2   4   2
      0.0391192902     4   3   4   3
      1.2292641093     4   4   1   1
     -0.0162715251     4   4   2   1
      0.8568955605     4   4   2   2
      0.8043424143     4   4   3   3
      0.8867222462     4   4   4   4
      0.0621407969     5   1   1   1
     -0.0094310953     5   1   2   1
      0.0039976775     5   1   2   2
      0.0019512010     5   1   3   3
      0.0019512010     5   1   4   4
      0.0245341080     5   1   5   1
     -0.0792002296     5   2   1   1
      0.0033391083     5   2   2   1
     -0.0323967412     5   2   2   2
     -0.0384272326     5   2   3   3
     -0.0384272326     5   2   4   4
      0.0256660880     5   2   5   1
      0.1286979528     5   2   5   2
     -0.0042113825     5   3   3   1
     -0.0140014972     5   3   3   2
      0.0296728757     5   3   5   3
     -0.0042113825     5   4   4   1
     -0.0140014972     5   4   4   2
      0.0296728757     5   4   5   4
      0.9468516274     5   5   1   1
     -0.0105976872     5   5   2   1
      0.7045495987     5   5   2   2
      0.6615568148     5   5   3   3
      0.6615568148     5   5   4   4
     -0.0013693524     5   5   5   1
     -0.0104089258     5   5   5   2
      0.6485481165     5   5   5   5
      0.0797641337     6   1   1   1
     -0.0134662027     6   1   2   1
      0.0024559236     6   1   2   2
      0.0017622545     6   1   3   3
      0.0017622545     6   1   4   4
     -0.0152538984     6   1   5   1
     -0.0191054070     6   1   5   2
      0.0033665942     6   1   5   5
      0.0138318626     6   1   6   1
     -0.1101140174     6   2   1   1
      0.0027385301     6   2   2   1
     -0.0634141236     6   2   2   2
     -0.0604298433     6   2   3   3
     -0.0604298433     6   2   4   4
     -0.0170414494     6   2   5   1
     -0.0657683311     6   2   5   2
     -0.0323516251     6   2   5   5
      0.0116143183     6   2   6   1
      0.0540400695     6   2   6   2
     -0.0051255396     6   3   3   1
     -0.0172188234     6   3   3   2
     -0.0163446690     6   3   5   3
      0.0179683414     6   3   6   3
     -0.0051255396     6   4   4   1
     -0.0172188234     6   4   4   2
     -0.0163446690     6   4   5   4
      0.0179683414     6   4   6   4
     -0.3415241706     6   5   1   1
      0.0043352281     6   5   2   1
     -0.2132121198     6   5   2   2
     -0.1955414387     6   5   3   3
     -0.1955414387     6   5   4   4
     -0.0004030113     6   5   5   1
      0.0381742372     6   5   5   2
     -0.1241594810     6   5   5   5
     -0.0005656901     6   5   6   1
      0.0234022042     6   5   6   2
      0.1432347299     6   5   6   5
      0.5736263564     6   6   1   1
     -0.0050806976     6   6   2   1
      0.4623681779     6   6   2   2
      0.4407514391     6   6   3   3
      0.4407514391     6   6   4   4
      0.0068306499     6   6   5   1
      0.0374377555     6   6   5   2
      0.4786047432     6   6   5   5
     -0.0034170923     6   6   6   1
     -0.0247017889     6   6   6   2
      0.0065410834     6   6   6   5
      0.4594433251     6   6   6   6
     -0.0048209257     7   1   1   1
      0.0007612091     7   1   2   1
     -0.0004989417     7   1   2   2
     -0.0002635596     7   1   3   3
     -0.0002635596     7   1   4   4
     -0.0077903813     7   1   5   1
     -0.0080811304     7   1   5   2
      0.0010019526     7   1   5   5
      0.0053137658     7   1   6   1
      0.0052152407     7   1   6   2
     -0.0001946462     7   1   6   5
     -0.0017548310     7   1   6   6
      0.0025452140     7   1   7   1
      0.0040014619     7   2   1   1
     -0.0001746658     7   2   2   1
      0.0032475281     7   2   2   2
      0.0002797281     7   2   3   3
      0.0002797281     7   2   4   4
     -0.0058843558     7   2   5   1
     -0.0187577438     7   2   5   2
      0.0158247158     7   2   5   5
      0.0043572613     7   2   6   1
      0.0157141411     7   2   6   2
      0.0032079298     7   2   6   5
      0.0101439829     7   2   6   6
      0.0019286684     7   2   7   1
      0.0087936478     7   2   7   2
     -0.0007836687     7   3   3   1
     -0.0070306380     7   3   3   2
     -0.0060167336     7   3   5   3
      0.0057763903     7   3   6   3
      0.0041364304     7   3   7   3
     -0.0007836687     7   4   4   1
     -0.0070306380     7   4   4   2
     -0.0060167336     7   4   5   4
      0.0057763903     7   4   6   4
      0.0041364304     7   4   7   4
     -0.1149214459     7   5   1   1
      0.0027219464     7   5   2   1
     -0.0512374028     7   5   2   2
     -0.0500646517     7   5   3   3
     -0.0500646517     7   5   4   4
      0.0024147248     7   5   5   1
      0.0348358608     7   5   5   2
      0.0065004241     7   5   5   5
     -0.0023356038     7   5   6   1
      0.0024511239     7   5   6   2
      0.0709552549     7   5   6   5
      0.0489005043     7   5   6   6
     -0.0008750834     7   5   7   1
      0.0070950960     7   5   7   2
      0.0677708032     7   5   7   5
      0.1393058525     7   6   1   1
     -0.0020691791     7   6   2   1
      0.0957906803     7   6   2   2
      0.0863943938     7   6   3   3
      0.0863943938     7   6   4   4
      0.0013823001     7   6   5   1
      0.0130327263     7   6   5   2
      0.1174540126     7   6   5   5
     -0.0004560314     7   6   6   1
     -0.0036400167     7   6   6   2
      0.0135310469     7   6   6   5
      0.0999154790     7   6   6   6
     -0.0002813210     7   6   7   1
      0.0116203316     7   6   7   2
      0.0531713445     7   6   7   5
      0.0851186196     7   6   7   6
      0.3428424588     7   7   1   1
     -0.0008956691     7   7   2   1
      0.3277355720     7   7   2   2
[...]
 tce:restart_ignore_failure           logical[4]      Tue Jul 30 17:26:25 2019 
 tce:guess_lr_real                    logical[1]      Tue Jul 30 17:26:25 2019 
 basis:ao basis:tags info                 int[280]    Tue Jul 30 17:26:25 2019 
 tce:skip_t                           logical[1]      Tue Jul 30 17:26:25 2019 
 tce:hbard                                int[1]      Tue Jul 30 17:26:25 2019 
 tce:diagnt1                          logical[1]      Tue Jul 30 17:26:25 2019 
 geometry:geometry:zmt_ijkang_frz        logical[160]    Tue Jul 30 17:26:25 2019 
 tce:read_integrals                   logical[5]      Tue Jul 30 17:26:25 2019 
 tce:bnumfreq                             int[1]      Tue Jul 30 17:26:25 2019 
 tce:ccsdvar                             char[5]      Tue Jul 30 17:26:25 2019 
 tce:lineresp                         logical[1]      Tue Jul 30 17:26:25 2019 
 tce:save_l                           logical[4]      Tue Jul 30 17:26:25 2019 
 tce:ichopx                               int[1]      Tue Jul 30 17:26:25 2019 
 tce:nogamma                          logical[1]      Tue Jul 30 17:26:25 2019 
 scf:dipole                            double[3]      Tue Jul 30 17:26:25 2019 
 geometry:ngeom                           int[1]      Tue Jul 30 17:26:25 2019 
 tce:uact                                 int[1]      Tue Jul 30 17:26:25 2019 
 geometry:geometry:zmt_ijklto             int[640]    Tue Jul 30 17:26:25 2019 
 tce:save_tr                          logical[8]      Tue Jul 30 17:26:25 2019 
 geometry:geometry:zmt_ijklnb             int[640]    Tue Jul 30 17:26:25 2019 
 geometry:geometry:operators           double[2304]   Tue Jul 30 17:26:25 2019 
 tce:zlshiftl                          double[1]      Tue Jul 30 17:26:25 2019 
 tce:skip_tr                          logical[1]      Tue Jul 30 17:26:25 2019 
 basis:ao basis:star nr tags              int[1]      Tue Jul 30 17:26:25 2019 
 geometry:geometry:zmt_ijkang_val         double[160]    Tue Jul 30 17:26:25 2019 
 tce:anumfreq                             int[1]      Tue Jul 30 17:26:25 2019 
 geometry:geometry:zmt_ijklto_nam           char[160]    Tue Jul 30 17:26:25 2019 
 geometry:geometry:zmt_ijklop_frz        logical[160]    Tue Jul 30 17:26:25 2019 
 tce:save_t                           logical[4]      Tue Jul 30 17:26:25 2019 
 geometry:geometry:zmt_varsign         double[1]      Tue Jul 30 17:26:25 2019 
 geometry:geometry:recip vectors         double[3]      Tue Jul 30 17:26:25 2019 
 tce:model                               char[5]      Tue Jul 30 17:26:25 2019 
 tce:maxiter                              int[1]      Tue Jul 30 17:26:25 2019 
 tce:symmetry                         logical[1]      Tue Jul 30 17:26:25 2019 
 tce:save_x                           logical[4]      Tue Jul 30 17:26:25 2019 
 geometry:geometry:no. unique centers            int[1]      Tue Jul 30 17:26:25 2019 
 basis:ao basis:contraction info            int[90000]  Tue Jul 30 17:26:25 2019 
 tce:save_y                           logical[4]      Tue Jul 30 17:26:25 2019 
 geometry:geometry:zmt_izmat              int[3]      Tue Jul 30 17:26:25 2019 
 basis:ao basis:bs_nr_tags                int[1]      Tue Jul 30 17:26:25 2019 
 geometry:geometry:zmt_ijklop_val         double[160]    Tue Jul 30 17:26:25 2019 
 geometry:geometry:group number            int[1]      Tue Jul 30 17:26:25 2019 
 tce:nactv                                int[1]      Tue Jul 30 17:26:25 2019 
 tce:active_va                            int[1]      Tue Jul 30 17:26:25 2019 
 geometry:geometry:recip angles         double[3]      Tue Jul 30 17:26:25 2019 
 tce:active_vb                            int[1]      Tue Jul 30 17:26:25 2019 
 tce:active_oa                            int[1]      Tue Jul 30 17:26:25 2019 
 tce:active_ob                            int[1]      Tue Jul 30 17:26:25 2019 
 geometry:geometry:zmt_varname           char[2]      Tue Jul 30 17:26:25 2019 
 tce:thresh                            double[1]      Tue Jul 30 17:26:25 2019 
 geometry:geometry:system type            int[1]      Tue Jul 30 17:26:25 2019 
 tce:energy                            double[1]      Tue Jul 30 17:26:36 2019 
 tce:nopolar                          logical[1]      Tue Jul 30 17:26:25 2019 
 basis:ao basis:bs_stdname               char[16]     Tue Jul 30 17:26:25 2019 
 geometry:geometry:charges             double[2]      Tue Jul 30 17:26:25 2019 
 tce:respaxis                         logical[3]      Tue Jul 30 17:26:25 2019 
 tce:perturbative                        char[5]      Tue Jul 30 17:26:25 2019 
 scf:multiplicity                        char[8]      Tue Jul 30 17:26:25 2019 
 geometry:geometry:zmt_nizmat             int[1]      Tue Jul 30 17:26:25 2019 
 scf:output vectors                      char[24]     Tue Jul 30 17:26:25 2019 
 basis:ao basis:header                    int[7]      Tue Jul 30 17:26:25 2019 
 geometry:geometry:zmt_cvr_scaling         double[1]      Tue Jul 30 17:26:25 2019 
 geometry:geometry:tags                  char[4]      Tue Jul 30 17:26:25 2019 
 scf:input vectors                       char[24]     Tue Jul 30 17:26:25 2019 
 geometry:geometry:zmt_ijklnb_nam           char[160]    Tue Jul 30 17:26:25 2019 
 geometry:geometry:zmt_ijklto_frz        logical[160]    Tue Jul 30 17:26:25 2019 
 geometry:geometry:include_bqbq        logical[1]      Tue Jul 30 17:26:25 2019 
 tce:qducc                            logical[1]      Tue Jul 30 17:26:25 2019 
 geometry:geometry:zmt_ijklop             int[640]    Tue Jul 30 17:26:25 2019 
 geometry:geometry:group name            char[3]      Tue Jul 30 17:26:25 2019 
 tce:model2e                             char[6]      Tue Jul 30 17:26:25 2019 
 tce:eactmax                           double[1]      Tue Jul 30 17:26:25 2019 
 tce:zlshift2                          double[2]      Tue Jul 30 17:26:25 2019 
 tce:eactmin                           double[1]      Tue Jul 30 17:26:25 2019 
 basisprint:ao basis                  logical[1]      Tue Jul 30 17:26:25 2019 
 tce:oact                                 int[1]      Tue Jul 30 17:26:25 2019 
 tce:zlshift3                          double[2]      Tue Jul 30 17:26:25 2019 
 tce:densmat                          logical[1]      Tue Jul 30 17:26:25 2019 
 tce:nroots                               int[1]      Tue Jul 30 17:26:25 2019 
 geometry:geometry:zmt_ijklto_val         double[160]    Tue Jul 30 17:26:25 2019 
 geometry:geometry:zmt_maxtor             int[1]      Tue Jul 30 17:26:25 2019 
 scf:converged                        logical[1]      Tue Jul 30 17:26:25 2019 
 scf:nelec                                int[1]      Tue Jul 30 17:26:25 2019 
 tce:maxdiff                           double[1]      Tue Jul 30 17:26:25 2019 
 tce:guess_qr_real                    logical[1]      Tue Jul 30 17:26:25 2019 
 basis:ao basis:number of exps and coeffs            int[1]      Tue Jul 30 17:26:25 2019 
 geometry:names                          char[9]      Tue Jul 30 17:26:25 2019 
 geometry:geometry:masses              double[2]      Tue Jul 30 17:26:25 2019 
 tce:zlshift                           double[1]      Tue Jul 30 17:26:25 2019 
 tce:eoms                                 int[1]      Tue Jul 30 17:26:25 2019 
 tce:ampnorms                         logical[1]      Tue Jul 30 17:26:25 2019 
 scf:scftype                             char[4]      Tue Jul 30 17:26:25 2019 
 tce:diis2                                int[1]      Tue Jul 30 17:26:25 2019 
 tce:read_l                           logical[4]      Tue Jul 30 17:26:25 2019 
 tce:enegr                             double[1]      Tue Jul 30 17:26:36 2019 
 basis:ao basis:exps and coeffs         double[54]     Tue Jul 30 17:26:25 2019 
 tce:diis3                                int[1]      Tue Jul 30 17:26:25 2019 
 geometry:geometry:unique centers            int[2]      Tue Jul 30 17:26:25 2019 
 tce:read_lr                          logical[8]      Tue Jul 30 17:26:25 2019 
 geometry:geometry:zmt_ijbond_nam           char[160]    Tue Jul 30 17:26:25 2019 
 geometry:geometry:amatrix             double[9]      Tue Jul 30 17:26:25 2019 
 geometry:geometry:inv nuc expon         double[2]      Tue Jul 30 17:26:25 2019 
 geometry:geometry:zmt_ijklnb_val         double[160]    Tue Jul 30 17:26:25 2019 
 geometry:geometry:vel                 double[6]      Tue Jul 30 17:26:25 2019 
 geometry:geometry:zmt_ijklnb_frz        logical[160]    Tue Jul 30 17:26:25 2019 
 task:status                          logical[1]      Tue Jul 30 17:26:36 2019 
 geometry:geometry:direct volume         double[1]      Tue Jul 30 17:26:25 2019 
 tce:afreq                             double[1]      Tue Jul 30 17:26:25 2019 
 geometry:geometry:num_operators            int[1]      Tue Jul 30 17:26:25 2019 
 tce:read_t                           logical[4]      Tue Jul 30 17:26:25 2019 
 tce:save_interval                        int[1]      Tue Jul 30 17:26:25 2019 
 basis:nbasis                             int[1]      Tue Jul 30 17:26:25 2019 
 file_prefix                             char[15]     Tue Jul 30 17:26:25 2019 
 geometry:geometry:primitive_center           char[2]      Tue Jul 30 17:26:25 2019 
 task:energy                           double[1]      Tue Jul 30 17:26:36 2019 
 geometry:geometry:ncenter                int[1]      Tue Jul 30 17:26:25 2019 
 tce:idiskx                               int[1]      Tue Jul 30 17:26:25 2019 
 tce:damp2                             double[1]      Tue Jul 30 17:26:25 2019 
 geometry:geometry:zmt_nzvar              int[1]      Tue Jul 30 17:26:25 2019 
 tce:quadresp                         logical[1]      Tue Jul 30 17:26:25 2019 
 tce:damp3                             double[1]      Tue Jul 30 17:26:25 2019 
 scf:thresh                            double[1]      Tue Jul 30 17:26:25 2019 
 scf:energy                            double[1]      Tue Jul 30 17:26:25 2019 
 tce:read_tr                          logical[8]      Tue Jul 30 17:26:25 2019 
 tce:read_x                           logical[4]      Tue Jul 30 17:26:25 2019 
 basis:ao basis:assoc ecp name           char[4]      Tue Jul 30 17:26:25 2019 
 tce:read_y                           logical[4]      Tue Jul 30 17:26:25 2019 
 geometry:geometry:zmt_ijbond             int[320]    Tue Jul 30 17:26:25 2019 
 geometry:geometry:zmt_source            char[6]      Tue Jul 30 17:26:25 2019 
 geometry:geometry:setting number            int[1]      Tue Jul 30 17:26:25 2019 
 tce:act_excit_lvl                        int[1]      Tue Jul 30 17:26:25 2019 
 basis:ao basis:bs_tags                  char[4]      Tue Jul 30 17:26:25 2019 
 tce:i4im                                 int[1]      Tue Jul 30 17:26:25 2019 
 scf:tol2e                             double[1]      Tue Jul 30 17:26:25 2019 
 tce:diis                                 int[1]      Tue Jul 30 17:26:25 2019 
 tce:recompf                          logical[1]      Tue Jul 30 17:26:25 2019 
 rtdb:stored:state                    logical[3]      Tue Jul 30 17:26:25 2019 
 scf:alpha irreps                         int[19]     Tue Jul 30 17:26:25 2019 
 tce:module                              char[4]      Tue Jul 30 17:26:25 2019 
 geometry:geometry:zmt_ijbond_frz        logical[160]    Tue Jul 30 17:26:25 2019 
 tce:target                               int[1]      Tue Jul 30 17:26:25 2019 
 tce:left                             logical[1]      Tue Jul 30 17:26:25 2019 


 HDBM usage statistics
 ---------------------
 Reads         = 1993
 Inserts       = 1090
 Replaces      = 374
 Extracts      = 0
 Deletes       = 2166
 Reuses        = 16

 Memory allocs = 10096
 Memory frees  = 10096
 Memory max    = 1519711
 Memory in use = 0

 IO seeks      = 4105
 IO reads      = 2994
 IO writes     = 3289
 IO nread      = 3222684
 IO nwrite     = 2392636

 Summary of allocated global arrays
-----------------------------------
  No active global arrays



                         GA Statistics for process    0
                         ------------------------------

       create   destroy   get      put      acc     scatter   gather  read&inc
calls: 2539     2539     8015     3150     4541        0        0     5369     
number of processes/call 5.98e+14 -2.33e+15 2.02e+13 0.00e+00 0.00e+00
bytes total:             2.29e+08 1.16e+07 5.59e+07 0.00e+00 0.00e+00 4.30e+04
bytes remote:            0.00e+00 0.00e+00 0.00e+00 0.00e+00 0.00e+00 0.00e+00
Max memory consumed for GA by this process: 1663800 bytes

MA_summarize_allocated_blocks: starting scan ...
MA_summarize_allocated_blocks: scan completed: 0 heap blocks, 0 stack blocks
MA usage statistics:

	allocation statistics:
					      heap	     stack
					      ----	     -----
	current number of blocks	         0	         0
	maximum number of blocks	        17	        40
	current total bytes		         0	         0
	maximum total bytes		   1060368	  55520424
	maximum total K-bytes		      1061	     55521
	maximum total M-bytes		         2	        56

	calls per routine:
		        39  MA_alloc_get
		        39  MA_allocate_heap
		       182  MA_chop_stack
		        39  MA_free_heap
		         0  MA_free_heap_piece
		     19091  MA_get_index
		         5  MA_get_mbase
		         0  MA_get_next_memhandle
		         0  MA_get_numalign
		        51  MA_get_pointer
		         1  MA_init
		         0  MA_initialized
		         0  MA_init_memhandle_iterator
		       270  MA_inquire_avail
		         1  MA_inquire_heap
		         0  MA_inquire_heap_check_stack
		         0  MA_inquire_heap_no_partition
		         1  MA_inquire_stack
		         0  MA_inquire_stack_check_heap
		         0  MA_inquire_stack_no_partition
		     18836  MA_pop_stack
		         1  MA_print_stats
		     19052  MA_push_get
		     19103  MA_push_stack
		         3  MA_set_auto_verify
		         1  MA_set_error_print
		         3  MA_set_hard_fail
		         1  MA_set_numalign
		      9352  MA_sizeof
		        26  MA_sizeof_overhead
		         1  MA_summarize_allocated_blocks
		         0  MA_trace
		     66987  MA_verify_allocator_stuff


                                     CITATION
                                     --------
                Please cite the following reference when publishing
                           results obtained with NWChem:

                 M. Valiev, E.J. Bylaska, N. Govind, K. Kowalski,
              T.P. Straatsma, H.J.J. van Dam, D. Wang, J. Nieplocha,
                        E. Apra, T.L. Windus, W.A. de Jong
                 "NWChem: a comprehensive and scalable open-source
                  solution for large scale molecular simulations"
                      Comput. Phys. Commun. 181, 1477 (2010)
                           doi:10.1016/j.cpc.2010.04.018

                                      AUTHORS
                                      -------
          E. Apra, E. J. Bylaska, W. A. de Jong, N. Govind, K. Kowalski,
       T. P. Straatsma, M. Valiev, H. J. J. van Dam, D. Wang, T. L. Windus,
        J. Hammond, J. Autschbach, K. Bhaskaran-Nair, J. Brabec, K. Lopata,
    S. A. Fischer, S. Krishnamoorthy, M. Jacquelin, W. Ma, M. Klemm, O. Villa,
      Y. Chen, V. Anisimov, F. Aquino, S. Hirata, M. T. Hackler, V. Konjkov,
            D. Mejia-Rodriguez, T. Risthaus, M. Malagoli, A. Marenich,
   A. Otero-de-la-Roza, J. Mullin, P. Nichols, R. Peverati, J. Pittner, Y. Zhao,
        P.-D. Fan, A. Fonari, M. J. Williamson, R. J. Harrison, J. R. Rehr,
      M. Dupuis, D. Silverstein, D. M. A. Smith, J. Nieplocha, V. Tipparaju,
    M. Krishnan, B. E. Van Kuiken, A. Vazquez-Mayagoitia, L. Jensen, M. Swart,
      Q. Wu, T. Van Voorhis, A. A. Auer, M. Nooijen, L. D. Crosby, E. Brown,
      G. Cisneros, G. I. Fann, H. Fruchtl, J. Garza, K. Hirao, R. A. Kendall,
      J. A. Nichols, K. Tsemekhman, K. Wolinski, J. Anchell, D. E. Bernholdt,
      P. Borowski, T. Clark, D. Clerc, H. Dachsel, M. J. O. Deegan, K. Dyall,
    D. Elwood, E. Glendening, M. Gutowski, A. C. Hess, J. Jaffe, B. G. Johnson,
     J. Ju, R. Kobayashi, R. Kutteh, Z. Lin, R. Littlefield, X. Long, B. Meng,
      T. Nakajima, S. Niu, L. Pollack, M. Rosing, K. Glaesemann, G. Sandrone,
      M. Stave, H. Taylor, G. Thomas, J. H. van Lenthe, A. T. Wong, Z. Zhang.

                                    REFERENCES
                                    ----------

          Where appropriate, please cite the following reference(s) 
          when publishing results obtained with NWChem:


     1. D. E. Bernholdt, E. Apra, H. A. Fruchtl, M.F. Guest, R. J. Harrison, 
        R. A. Kendall, R. A. Kutteh, X. Long, J. B. Nicholas, J. A. Nichols, 
        H. L. Taylor, A. T. Wong, G. I. Fann, R. J. Littlefield and
        J. Nieplocha,
        "Parallel Computational Chemistry Made Easier: 
        The Development of NWChem,"
        Int. J. Quantum Chem. Symposium  29, 475-483 (1995).


     2. M. F. Guest, E. Apra, D. E. Bernholdt, H. A. Fruchtl, R. J. Harrison, 
        R. A. Kendall, R. A. Kutteh, X. Long, J. B. Nicholas, J. A. Nichols, 
        H. L. Taylor, A. T. Wong, G. I. Fann, R. J. Littlefield and
        J. Nieplocha,
        "High Performance Computational Chemistry: NWChem and Fully Distributed
        Parallel Applications", in Advances in Parallel Computing, 10, High
        Performance Computing: Technology, Methods, and Applications, Eds. 
        J. Dongarra, L. Gradinetti, G. Joubert, and J. Kowalik, 
        (Elsevier Science B. V. pp. 395-427, 1995).


     3. M. F. Guest, E. Apra, D. E. Bernholdt, H. A. Fruchtl, R. J. Harrison, 
        R. A. Kendall, R. A. Kutteh, J. B. Nicholas, J. A. Nichols, M. S. Stave,
        A. T. Wong, R. J. Littlefield and J. Nieplocha, "High Performance 
        Computational Chemistry: Towards Fully Distributed Parallel Algorithms",
        in High Performance Computing: Symposium 1995, Grand Challenges in 
        Computer Simulation, Adrian M. Tentner, Editor, Proceedings of the 1995 
        Simulation Multiconference, April 9-13, 1995, Phoenix, Arizona, 
        Simulation Councils, Inc., The Society for Computer Simulation, 
        San Diego, CA, 1995. pp. 511-521.


     4. M. F. Guest, E. Apra, D. E. Bernholdt, H. A. Fruchtl, R. J. Harrison,
        R. A. Kendall, R. A. Kutteh, X. Long, J. B. Nicholas, J. A. Nichols, 
        H. L. Taylor, A. T. Wong, G. I. Fann, R. J. Littlefield and
        J. Nieplocha,
        "Advances in Parallel Distributed Data Software; Computational Chemistry
        and NWChem", in Applied Parallel Computing.  Computations in Physics,
        Chemistry, and Engineering Science, Eds. J. Wasnieski, J. Dongarra, and 
        K. Madsen, Lecture Notes in Computer Science, 1041,
        (Springer-Verlag, Berlin, 278-294, 1996).


     5. M. F. Guest, E. Apra, D. E. Bernholdt, H. A. Fruchtl, R. J. Harrison,
        R. A. Kendall, R. A. Kutteh, X. Long, J. B. Nicholas, J. A. Nichols, 
        H. L. Taylor, A. T. Wong, G. I. Fann, R. J. Littlefield and
        J. Nieplocha, 
        "High-Performance Computing in Chemistry; NWChem", Future 
        Generations Computer Systems  12(4), 273, (1996).


     6. R. A. Kendall, E. Apra, D. E. Bernholdt, E. J. Bylaska, M. Dupuis,
        G. I. Fann, R. J. Harrison, J. Ju, J. A. Nichols, J. Nieplocha,
        T. P. Straatsma, T. L. Windus, A. T. Wong,
        Computer Phys. Comm. 128, 260 (2000).


     7. T. P. Straatsma and V. Helms, in Molecular Dynamics on Parallel
        Computers2000, R. Esser et al. editors, p 70.


     8.  T. P. Straatsma, M. Philippopoulos and J. A. McCammon,
         Computer Phys. Comm. 128, 377 (2000).


     9.  M. Valiev, E. J. Bylaska, A. Gramada, and J. H. Weare,
         Reviews in Modern Quantum Chemistry, pages 1684-1734
         (World Scientific, Singapore, 2002).


    10.  E. J. Bylaska, M. Valiev, R. Kawai, and J. H. Weare,
         Computer Phys. Comm. 143, 11 (2002).


    11.  M. Valiev and J. H. Weare,
         J. Phys. Chem. A, 103, 10588 (1999).



 Total times  cpu:       11.2s     wall:       11.2s
