 argument  1 = originalHF.nw
  NWChem w/ OpenMP: maximum threads =    4



============================== echo of input deck ==============================
start tce_hf_0.96264

echo
memory total 6 gb
print high

geometry units angstrom
symmetry c1
H  0.0000000  0.0000  0.96264
F  0.0000000  0.0000  0.00000
end


basis spherical
H library cc-pvdz
F library cc-pvdz
end

scf
thresh 1.0e-10
tol2e 1.0e-10
singlet
rhf
end

tce
2eorb
2emet 13
thresh 1.0d-8
ccsd
end

set tce:qducc T
set tce:nactv 5

task tce energy

================================================================================


                                         
                                         


              Northwest Computational Chemistry Package (NWChem) 6.8
              ------------------------------------------------------


                    Environmental Molecular Sciences Laboratory
                       Pacific Northwest National Laboratory
                                Richland, WA 99352

                              Copyright (c) 1994-2018
                       Pacific Northwest National Laboratory
                            Battelle Memorial Institute

             NWChem is an open-source computational chemistry package
                        distributed under the terms of the
                      Educational Community License (ECL) 2.0
             A copy of the license is included with this distribution
                              in the LICENSE.TXT file

                                  ACKNOWLEDGMENT
                                  --------------

            This software and its documentation were developed at the
            EMSL at Pacific Northwest National Laboratory, a multiprogram
            national laboratory, operated for the U.S. Department of Energy
            by Battelle under Contract Number DE-AC05-76RL01830. Support
            for this work was provided by the Department of Energy Office
            of Biological and Environmental Research, Office of Basic
            Energy Sciences, and the Office of Advanced Scientific Computing.


           Job information
           ---------------

    hostname        = WE27583
    program         = /Users/lamm799/nwchem/bin/MACX64/nwchem
    date            = Tue Jul 30 17:22:48 2019

    compiled        = Mon_Jul_15_13:12:43_2019
    source          = /Users/lamm799/nwchem
    nwchem branch   = Development
    nwchem revision = nwchem_on_git-975-g459e4567d
    ga revision     = 5.7.0
    use scalapack   = F
    input           = originalHF.nw
    prefix          = tce_hf_0.96264.
    data base       = ./tce_hf_0.96264.db
    status          = startup
    nproc           =        1
    time left       =     -1s



           Memory information
           ------------------

    heap     =  201326588 doubles =   1536.0 Mbytes
    stack    =  201326593 doubles =   1536.0 Mbytes
    global   =  402653184 doubles =   3072.0 Mbytes (distinct from heap & stack)
    total    =  805306365 doubles =   6144.0 Mbytes
    verify   = yes
    hardfail = no 


           Directory information
           ---------------------

  0 permanent = .
  0 scratch   = .




                                NWChem Input Module
                                -------------------



 Scaling coordinates for geometry "geometry" by  1.889725989
 (inverse scale =  0.529177249)

 Turning off AUTOSYM since
 SYMMETRY directive was detected!

     MOLECULAR POINT GROUP NUMBER =  1     SCHOENFLIES SYMBOL = C1        

                --------------- GROUP GENERATORS ---------------

                      1 GENERATORS USED TO FORM THE GROUP

                         PT fold Rotoinversion Operator
                     1.000000  0.000000  0.000000  0.000000
                     0.000000  1.000000  0.000000  0.000000
                     0.000000  0.000000  1.000000  0.000000


The   1 symmetry operators (excl. E) are as follows:



                    ---------- FULL LISTING OF GROUP ----------

                  MATRIX REPRESENTATIONS OF THE GROUP OPERATORS

     EXCLUDING THE IDENTITY OPERATOR THERE ARE  1 OPERATORS IN THIS GROUP

                         pt fold Rotoinversion Operator
                     1.000000  0.000000  0.000000  0.000000
                     0.000000  1.000000  0.000000  0.000000
                     0.000000  0.000000  1.000000  0.000000


                  <<< SYMMETRY OPERATION/ATOM MAPPING BUILT >>>
      Symmetry information
      --------------------

 Group name             C1        
 Group number              1
 Group order               1
 No. of unique centers     2



                  Character table for group C1      

                  1e     
        a          1.000

      Symmetry unique atoms

     1    2

      Mapping of centers


      Group operations



          ------
          auto-z
          ------
  no constraints, skipping    0.0000000000000000     
 Imposing constraints:   iter = 1  dqmax = 0.0D+00
  no constraints, skipping    0.0000000000000000     


                             Geometry "geometry" -> ""
                             -------------------------

 Output coordinates in angstroms (scale by  1.889725989 to convert to a.u.)

  No.       Tag          Charge          X              Y              Z
 ---- ---------------- ---------- -------------- -------------- --------------
    1 H                    1.0000     0.00000000     0.00000000     0.86637600
    2 F                    9.0000     0.00000000     0.00000000    -0.09626400

      Atomic Mass 
      ----------- 

      H                  1.007825
      F                 18.998400


 Effective nuclear repulsion energy (a.u.)       4.9474312734

            Nuclear Dipole moment (a.u.) 
            ----------------------------
        X                 Y               Z
 ---------------- ---------------- ----------------
     0.0000000000     0.0000000000     0.0000000000



                                Z-matrix (autoz)
                                -------- 

 Units are Angstrom for bonds and degrees for angles

      Type          Name      I     J     K     L     M      Value
      ----------- --------  ----- ----- ----- ----- ----- ----------
    1 Stretch                  1     2                       0.96264


            XYZ format geometry
            -------------------
     2
 geometry
 H                     0.00000000     0.00000000     0.86637600
 F                     0.00000000     0.00000000    -0.09626400

 ==============================================================================
                                internuclear distances
 ------------------------------------------------------------------------------
       center one      |      center two      | atomic units |  angstroms
 ------------------------------------------------------------------------------
    2 F                |   1 H                |     1.81913  |     0.96264
 ------------------------------------------------------------------------------
                         number of included internuclear distances:          1
 ==============================================================================



                      Basis "ao basis" -> "" (spherical)
                      -----
  H (Hydrogen)
  ------------
            Exponent  Coefficients 
       -------------- ---------------------------------------------------------
  1 S  1.30100000E+01  0.019685
  1 S  1.96200000E+00  0.137977
  1 S  4.44600000E-01  0.478148

  2 S  1.22000000E-01  1.000000

  3 P  7.27000000E-01  1.000000

  F (Fluorine)
  ------------
            Exponent  Coefficients 
       -------------- ---------------------------------------------------------
  1 S  1.47100000E+04  0.000721
  1 S  2.20700000E+03  0.005553
  1 S  5.02800000E+02  0.028267
  1 S  1.42600000E+02  0.106444
  1 S  4.64700000E+01  0.286814
  1 S  1.67000000E+01  0.448641
  1 S  6.35600000E+00  0.264761
  1 S  1.31600000E+00  0.015333

  2 S  1.47100000E+04 -0.000165
  2 S  2.20700000E+03 -0.001308
  2 S  5.02800000E+02 -0.006495
  2 S  1.42600000E+02 -0.026691
  2 S  4.64700000E+01 -0.073690
  2 S  1.67000000E+01 -0.170776
  2 S  6.35600000E+00 -0.112327
  2 S  1.31600000E+00  0.562814

  3 S  3.89700000E-01  1.000000

  4 P  2.26700000E+01  0.044878
  4 P  4.97700000E+00  0.235718
  4 P  1.34700000E+00  0.508521

  5 P  3.47100000E-01  1.000000

  6 D  1.64000000E+00  1.000000



 Summary of "ao basis" -> "" (spherical)
 ------------------------------------------------------------------------------
       Tag                 Description            Shells   Functions and Types
 ---------------- ------------------------------  ------  ---------------------
 H                          cc-pvdz                  3        5   2s1p
 F                          cc-pvdz                  6       14   3s2p1d



 Setting fock-build task_bf   :      -1
                    maxquartet:   10000
                    maxeri    :  129600
                    maxscr    :       0
                    intacc    : 0.0D+00
                    denscreen : T
                    dentol    : 1.0D-06

                                 NWChem SCF Module
                                 -----------------



  ao basis        = "ao basis"
  functions       =    19
  atoms           =     2
  closed shells   =     5
  open shells     =     0
  charge          =   0.00
  wavefunction    = RHF 
  input vectors   = atomic
  output vectors  = ./tce_hf_0.96264.movecs
  use symmetry    = F
  symmetry adapt  = F


 Summary of "ao basis" -> "ao basis" (spherical)
 ------------------------------------------------------------------------------
       Tag                 Description            Shells   Functions and Types
 ---------------- ------------------------------  ------  ---------------------
 H                          cc-pvdz                  3        5   2s1p
 F                          cc-pvdz                  6       14   3s2p1d




                         Geometry "geometry" -> "geometry"
                         ---------------------------------

 Output coordinates in angstroms (scale by  1.889725989 to convert to a.u.)

  No.       Tag          Charge          X              Y              Z
 ---- ---------------- ---------- -------------- -------------- --------------
    1 H                    1.0000     0.00000000     0.00000000     0.86637600
    2 F                    9.0000     0.00000000     0.00000000    -0.09626400

      Atomic Mass 
      ----------- 

      H                  1.007825
      F                 18.998400


 Effective nuclear repulsion energy (a.u.)       4.9474312734

            Nuclear Dipole moment (a.u.) 
            ----------------------------
        X                 Y               Z
 ---------------- ---------------- ----------------
     0.0000000000     0.0000000000     0.0000000000



                                Z-matrix (autoz)
                                -------- 

 Units are Angstrom for bonds and degrees for angles

      Type          Name      I     J     K     L     M      Value
      ----------- --------  ----- ----- ----- ----- ----- ----------
    1 Stretch                  1     2                       0.96264


                      Basis "ao basis" -> "ao basis" (spherical)
                      -----
  H (Hydrogen)
  ------------
            Exponent  Coefficients 
       -------------- ---------------------------------------------------------
  1 S  1.30100000E+01  0.019685
  1 S  1.96200000E+00  0.137977
  1 S  4.44600000E-01  0.478148

  2 S  1.22000000E-01  1.000000

  3 P  7.27000000E-01  1.000000

  F (Fluorine)
  ------------
            Exponent  Coefficients 
       -------------- ---------------------------------------------------------
  1 S  1.47100000E+04  0.000721
  1 S  2.20700000E+03  0.005553
  1 S  5.02800000E+02  0.028267
  1 S  1.42600000E+02  0.106444
  1 S  4.64700000E+01  0.286814
  1 S  1.67000000E+01  0.448641
  1 S  6.35600000E+00  0.264761
  1 S  1.31600000E+00  0.015333

  2 S  1.47100000E+04 -0.000165
  2 S  2.20700000E+03 -0.001308
  2 S  5.02800000E+02 -0.006495
  2 S  1.42600000E+02 -0.026691
  2 S  4.64700000E+01 -0.073690
  2 S  1.67000000E+01 -0.170776
  2 S  6.35600000E+00 -0.112327
  2 S  1.31600000E+00  0.562814

  3 S  3.89700000E-01  1.000000

  4 P  2.26700000E+01  0.044878
  4 P  4.97700000E+00  0.235718
  4 P  1.34700000E+00  0.508521

  5 P  3.47100000E-01  1.000000

  6 D  1.64000000E+00  1.000000



    Basis function labels
    ---------------------
       No.  Atm El Type
       ---  --- -- ----
        1    1 H  s          
        2    1 H  s          
        3    1 H  px         
        4    1 H  py         
        5    1 H  pz         
        6    2 F  s          
        7    2 F  s          
        8    2 F  s          
        9    2 F  px         
       10    2 F  py         
       11    2 F  pz         
       12    2 F  px         
       13    2 F  py         
       14    2 F  pz         
       15    2 F  d -2       
       16    2 F  d -1       
       17    2 F  d  0       
       18    2 F  d  1       
       19    2 F  d  2       

 Schwarz integral screening summary 
 ---------------------------------- 

        No. of atom pairs =       3
       No. of shell pairs =      45

 Atomic screening 

   value      no.     value      no.     value      no.     value      no.   
  -------- ------    -------- ------    -------- ------    -------- ------   
  0.00D+00      0    1.00D-13      0    1.00D-12      0    1.00D-11      0
  1.00D-10      0    1.00D-09      0    1.00D-08      0    1.00D-07      0
  1.00D-06      0    1.00D-05      0    1.00D-04      0    1.00D-03      0
  1.00D-02      0    1.00D-01      0    1.00D+00      3    1.00D+01      0


 Shell screening 

   value      no.     value      no.     value      no.     value      no.   
  -------- ------    -------- ------    -------- ------    -------- ------   
  0.00D+00      0    1.00D-13      0    1.00D-12      0    1.00D-11      0
  1.00D-10      0    1.00D-09      0    1.00D-08      0    1.00D-07      0
  1.00D-06      0    1.00D-05      0    1.00D-04      0    1.00D-03      0
  1.00D-02      0    1.00D-01     12    1.00D+00     33    1.00D+01      0



 Forming initial guess at       0.1s


      Superposition of Atomic Density Guess
      -------------------------------------

 Sum of atomic energies:         -99.88314519

      Non-variational initial energy
      ------------------------------

 Total energy =     -99.819409
 1-e energy   =    -149.253794
 2-e energy   =      44.486953
 HOMO         =      -0.629572
 LUMO         =       0.093348


 Setting fock-build task_bf   :      -1
                    maxquartet:   10000
                    maxeri    :  129600
                    maxscr    :       0
                    intacc    : 0.0D+00
                    denscreen : T
                    dentol    : 1.0D-06


 Wrote molecular orbitals to ./tce_hf_0.96264.movecs


 Starting SCF solution at       0.1s

 ready to solve ...                    0


 ----------------------------------------------
         Quadratically convergent ROHF

 Convergence threshold     :          1.000E-10
 Maximum no. of iterations :           30
 Final Fock-matrix accuracy:          1.000E-10
 ----------------------------------------------

   0: nuse=   1(   1.0) avail=   434875Mb (out of   434875Mb) on .

 #quartets = 1.035D+03 #integrals = 4.841D+03 #direct =  0.0% #cached =100.0%


 Integral file          = ./tce_hf_0.96264.aoints.0
 Record size in doubles =  65536        No. of integs per rec  =  43688
 Max. records in memory =      2        Max. records in file   = 826261
 No. of bits per label  =      8        No. of bits per value  =     64


 Wrote rohf: cfock to ./tce_hf_0.96264.cfock


              iter       energy          gnorm     gmax       time
             ----- ------------------- --------- --------- --------
                 1      -99.9882675664  7.41D-01  3.80D-01      0.1

            ----- linear solve (tol: 1.0E-02 prod-acc: 8.9E-09) -----

               iter nbas    rnorm     rnorm-scal   ratio     time
               ---- ---- ----------- ----------- --------- -------
 rohf_wrap: in g_x =    1              0.74145490
 rohf_wrap: out g_x =    1              0.10232847
                  1    1  1.2206E-15  1.6462E-15    0.0000     0.1

                              ----- Line search ------

        step       energy         lsg     num-lsg   num-lsh   lsrat    time
      ------- ---------------- --------- --------- --------- ------- --------
       0.0000     -99.98826757 -6.88D-02  0.00D+00  0.00D+00 0.0D+00      0.1

 Wrote rohf: cfock to ./tce_hf_0.96264.cfock

       1.0000    -100.00999879  2.65D-02  2.59D-02  9.53D-02 3.8D-01      0.1

 Wrote rohf: cfock to ./tce_hf_0.96264.cfock

       0.7224    -100.01357484 -6.25D-04 -6.58D-04  9.75D-02 9.1D-03      0.1

              iter       energy          gnorm     gmax       time
             ----- ------------------- --------- --------- --------
                 2     -100.0135748385  1.73D-01  6.64D-02      0.1

            ----- linear solve (tol: 1.0E-01 prod-acc: 2.1E-08) -----

               iter nbas    rnorm     rnorm-scal   ratio     time
               ---- ---- ----------- ----------- --------- -------
 rohf_wrap: in g_x =    1              0.17287197
 rohf_wrap: out g_x =    1              0.02104420
                  1    1  5.4799E-02  3.1699E-01    0.0000     0.2
 rohf_wrap: in g_x =    1              0.05479885
 rohf_wrap: out g_x =    1              0.00888107
                  2    2  1.6146E-02  9.3400E-02    0.2946     0.2

                              ----- Line search ------

        step       energy         lsg     num-lsg   num-lsh   lsrat    time
      ------- ---------------- --------- --------- --------- ------- --------
       0.0000    -100.01357484 -3.88D-03  0.00D+00  0.00D+00 0.0D+00      0.2

 Wrote rohf: cfock to ./tce_hf_0.96264.cfock

       1.0000    -100.01556089 -8.77D-05 -8.75D-05  3.80D-03 2.3D-02      0.2

              iter       energy          gnorm     gmax       time
             ----- ------------------- --------- --------- --------
                 3     -100.0155608870  1.63D-02  5.53D-03      0.2

            ----- linear solve (tol: 1.6E-02 prod-acc: 3.2E-10) -----

               iter nbas    rnorm     rnorm-scal   ratio     time
               ---- ---- ----------- ----------- --------- -------
 rohf_wrap: in g_x =    1              0.01634230
 rohf_wrap: out g_x =    1              0.00206897
                  1    1  4.7083E-03  2.8811E-01    0.0000     0.2
 rohf_wrap: in g_x =    1              0.00470832
 rohf_wrap: out g_x =    1              0.00085458
                  2    2  1.7064E-03  1.0441E-01    0.3624     0.2
 rohf_wrap: in g_x =    1              0.00170638
 rohf_wrap: out g_x =    1              0.00022511
                  3    3  2.9233E-04  1.7888E-02    0.1713     0.2
 rohf_wrap: in g_x =    1              0.00029233
 rohf_wrap: out g_x =    1              0.00003321
                  4    4  1.6794E-05  1.0276E-03    0.0574     0.2

                              ----- Line search ------

        step       energy         lsg     num-lsg   num-lsh   lsrat    time
      ------- ---------------- --------- --------- --------- ------- --------
       0.0000    -100.01556089 -4.19D-05  0.00D+00  0.00D+00 0.0D+00      0.2

 Wrote rohf: cfock to ./tce_hf_0.96264.cfock

       1.0000    -100.01558186 -1.02D-08 -8.31D-09  4.19D-05 2.4D-04      0.2

              iter       energy          gnorm     gmax       time
             ----- ------------------- --------- --------- --------
                 4     -100.0155818632  2.37D-05  9.00D-06      0.2

            ----- linear solve (tol: 2.4E-05 prod-acc: 6.7E-16) -----

               iter nbas    rnorm     rnorm-scal   ratio     time
               ---- ---- ----------- ----------- --------- -------
 rohf_wrap: in g_x =    1              0.00002372
 rohf_wrap: out g_x =    1              0.00000244
                  1    1  6.7928E-06  2.8642E-01    0.0000     0.2
 rohf_wrap: in g_x =    1              0.00000679
 rohf_wrap: out g_x =    1              0.00000102
                  2    2  1.1431E-06  4.8199E-02    0.1683     0.2
 rohf_wrap: in g_x =    1              0.00000114
 rohf_wrap: out g_x =    1              0.00000019
                  3    3  1.6419E-07  6.9232E-03    0.1436     0.2
 rohf_wrap: in g_x =    1              0.00000016
 rohf_wrap: out g_x =    1              0.00000003
                  4    4  4.2562E-08  1.7946E-03    0.2592     0.2
 rohf_wrap: in g_x =    1              0.00000004
 rohf_wrap: out g_x =    1              0.00000001
                  5    5  6.9843E-09  2.9449E-04    0.1641     0.2
 rohf_wrap: in g_x =    1              0.00000001
 rohf_wrap: out g_x =    1              0.00000000
                  6    6  4.3117E-10  1.8180E-05    0.0617     0.2

                              ----- Line search ------

        step       energy         lsg     num-lsg   num-lsh   lsrat    time
      ------- ---------------- --------- --------- --------- ------- --------
       0.0000    -100.01558186 -4.96D-11  0.00D+00  0.00D+00 0.0D+00      0.2

 Wrote rohf: cfock to ./tce_hf_0.96264.cfock

       1.0000    -100.01558186  1.94D-16  1.95D-13  4.96D-11 3.9D-06      0.2

              iter       energy          gnorm     gmax       time
             ----- ------------------- --------- --------- --------
                 5     -100.0155818633  4.30D-10  2.62D-10      0.2

            ----- linear solve (tol: 2.3E-02 prod-acc: 1.2E-17) -----

               iter nbas    rnorm     rnorm-scal   ratio     time
               ---- ---- ----------- ----------- --------- -------
 rohf_wrap: in g_x =    1              0.00000000
 rohf_wrap: out g_x =    1              0.00000000
                  1    1  7.2456E-11  1.6848E-01    0.0000     0.2
 rohf_wrap: in g_x =    1              0.00000000
 rohf_wrap: out g_x =    1              0.00000000
                  2    2  2.1042E-11  4.8929E-02    0.2904     0.2
 rohf_wrap: in g_x =    1              0.00000000
 rohf_wrap: out g_x =    1              0.00000000
                  3    3  3.7194E-12  8.6486E-03    0.1768     0.2

                              ----- Line search ------

        step       energy         lsg     num-lsg   num-lsh   lsrat    time
      ------- ---------------- --------- --------- --------- ------- --------
       0.0000    -100.01558186 -2.91D-20  0.00D+00  0.00D+00 0.0D+00      0.2

 Wrote rohf: cfock to ./tce_hf_0.96264.cfock

       1.0000    -100.01558186 -7.09D-23 -1.85D-13  2.90D-20 2.4D-03      0.2

              iter       energy          gnorm     gmax       time
             ----- ------------------- --------- --------- --------
                 6     -100.0155818633  3.70D-12  1.95D-12      0.2

 Wrote molecular orbitals to ./tce_hf_0.96264.movecs



       Final RHF  results 
       ------------------ 

         Total SCF energy =   -100.015581863269
      One-electron energy =   -150.275143141874
      Two-electron energy =     45.312130005235
 Nuclear repulsion energy =      4.947431273370

        Time for solution =      0.1s


             Final eigenvalues
             -----------------

              1      
    1  -26.2788
    2   -1.5684
    3   -0.7292
    4   -0.6245
    5   -0.6245
    6    0.1736
    7    0.7679
    8    1.3960
    9    1.3960
   10    1.4320
   11    1.6104
   12    1.6104
   13    2.1372
   14    2.3815
   15    4.0088
   16    4.0088
   17    4.2383
   18    4.2383
   19    4.9905

                       ROHF Final Molecular Orbital Analysis
                       -------------------------------------

 Vector    1  Occ=2.000000D+00  E=-2.627884D+01
              MO Center= -3.0D-21,  3.6D-21, -9.6D-02, r^2= 1.2D-02
   Bfn.  Coefficient  Atom+Function         Bfn.  Coefficient  Atom+Function  
  ----- ------------  ---------------      ----- ------------  ---------------
     6      1.000630  2 F  s          

 Vector    2  Occ=2.000000D+00  E=-1.568352D+00
              MO Center=  4.6D-20, -1.4D-18,  7.6D-03, r^2= 3.7D-01
   Bfn.  Coefficient  Atom+Function         Bfn.  Coefficient  Atom+Function  
  ----- ------------  ---------------      ----- ------------  ---------------
     8      0.499243  2 F  s                  7      0.483506  2 F  s          
     1      0.152553  1 H  s          

 Vector    3  Occ=2.000000D+00  E=-7.292256D-01
              MO Center=  6.4D-19,  1.3D-18,  3.7D-02, r^2= 5.9D-01
   Bfn.  Coefficient  Atom+Function         Bfn.  Coefficient  Atom+Function  
  ----- ------------  ---------------      ----- ------------  ---------------
    11      0.551942  2 F  pz                 1      0.375719  1 H  s          
    14      0.311744  2 F  pz                 8     -0.263995  2 F  s          

 Vector    4  Occ=2.000000D+00  E=-6.245135D-01
              MO Center=  5.1D-19,  2.1D-18, -8.1D-02, r^2= 4.4D-01
   Bfn.  Coefficient  Atom+Function         Bfn.  Coefficient  Atom+Function  
  ----- ------------  ---------------      ----- ------------  ---------------
    10      0.584695  2 F  py                13      0.419564  2 F  py         
     9      0.316307  2 F  px                12      0.226975  2 F  px         

 Vector    5  Occ=2.000000D+00  E=-6.245135D-01
              MO Center= -6.5D-19,  1.1D-18, -8.1D-02, r^2= 4.4D-01
   Bfn.  Coefficient  Atom+Function         Bfn.  Coefficient  Atom+Function  
  ----- ------------  ---------------      ----- ------------  ---------------
     9      0.584695  2 F  px                12      0.419564  2 F  px         
    10     -0.316307  2 F  py                13     -0.226975  2 F  py         

 Vector    6  Occ=0.000000D+00  E= 1.736196D-01
              MO Center=  9.0D-20, -2.0D-18,  1.0D+00, r^2= 2.0D+00
   Bfn.  Coefficient  Atom+Function         Bfn.  Coefficient  Atom+Function  
  ----- ------------  ---------------      ----- ------------  ---------------
     2      1.223326  1 H  s                  8     -0.634072  2 F  s          
    14     -0.352175  2 F  pz                11     -0.236297  2 F  pz         

 Vector    7  Occ=0.000000D+00  E= 7.678912D-01
              MO Center=  3.7D-17, -1.7D-17,  8.4D-01, r^2= 1.1D+00
   Bfn.  Coefficient  Atom+Function         Bfn.  Coefficient  Atom+Function  
  ----- ------------  ---------------      ----- ------------  ---------------
     1      1.292162  1 H  s                  2     -0.955016  1 H  s          
    11     -0.361512  2 F  pz                 5      0.280542  1 H  pz         
    14     -0.182712  2 F  pz                 8      0.157378  2 F  s          

 Vector    8  Occ=0.000000D+00  E= 1.395987D+00
              MO Center=  1.1D-16, -1.3D-16,  3.0D-01, r^2= 8.6D-01
   Bfn.  Coefficient  Atom+Function         Bfn.  Coefficient  Atom+Function  
  ----- ------------  ---------------      ----- ------------  ---------------
    10      0.618124  2 F  py                13     -0.529533  2 F  py         
     9     -0.517285  2 F  px                12      0.443146  2 F  px         
     4     -0.393195  1 H  py                 3      0.329050  1 H  px         

 Vector    9  Occ=0.000000D+00  E= 1.395987D+00
              MO Center= -1.5D-16, -1.1D-16,  3.0D-01, r^2= 8.6D-01
   Bfn.  Coefficient  Atom+Function         Bfn.  Coefficient  Atom+Function  
  ----- ------------  ---------------      ----- ------------  ---------------
     9      0.618124  2 F  px                12     -0.529533  2 F  px         
    10      0.517285  2 F  py                13     -0.443146  2 F  py         
     3     -0.393195  1 H  px                 4     -0.329050  1 H  py         

 Vector   10  Occ=0.000000D+00  E= 1.432006D+00
              MO Center=  2.5D-16,  1.4D-16, -5.0D-01, r^2= 8.9D-01
   Bfn.  Coefficient  Atom+Function         Bfn.  Coefficient  Atom+Function  
  ----- ------------  ---------------      ----- ------------  ---------------
    14      1.570129  2 F  pz                 1     -0.983244  1 H  s          
    11     -0.664470  2 F  pz                 5      0.530356  1 H  pz         
     8      0.473322  2 F  s                  7      0.253416  2 F  s          

 Vector   11  Occ=0.000000D+00  E= 1.610401D+00
              MO Center=  9.4D-18,  4.5D-17,  3.6D-01, r^2= 1.1D+00
   Bfn.  Coefficient  Atom+Function         Bfn.  Coefficient  Atom+Function  
  ----- ------------  ---------------      ----- ------------  ---------------
     4      0.928526  1 H  py                13     -0.895377  2 F  py         
    10      0.476179  2 F  py         

 Vector   12  Occ=0.000000D+00  E= 1.610401D+00
              MO Center= -2.4D-17, -3.1D-18,  3.6D-01, r^2= 1.1D+00
   Bfn.  Coefficient  Atom+Function         Bfn.  Coefficient  Atom+Function  
  ----- ------------  ---------------      ----- ------------  ---------------
     3      0.928526  1 H  px                12     -0.895377  2 F  px         
     9      0.476179  2 F  px         

 Vector   13  Occ=0.000000D+00  E= 2.137206D+00
              MO Center= -2.9D-16,  1.8D-16,  1.3D-01, r^2= 9.2D-01
   Bfn.  Coefficient  Atom+Function         Bfn.  Coefficient  Atom+Function  
  ----- ------------  ---------------      ----- ------------  ---------------
     8      2.245789  2 F  s                  7     -1.673509  2 F  s          
     6     -0.716321  2 F  s                 14      0.701897  2 F  pz         
     1     -0.598717  1 H  s                  2     -0.495910  1 H  s          
     5      0.236541  1 H  pz         

 Vector   14  Occ=0.000000D+00  E= 2.381465D+00
              MO Center= -5.7D-18,  4.6D-18,  7.1D-01, r^2= 6.7D-01
   Bfn.  Coefficient  Atom+Function         Bfn.  Coefficient  Atom+Function  
  ----- ------------  ---------------      ----- ------------  ---------------
     5      1.375528  1 H  pz                 8      1.104279  2 F  s          
    11      0.706148  2 F  pz                 1     -0.679043  1 H  s          
     2     -0.330042  1 H  s                 14      0.314018  2 F  pz         

 Vector   15  Occ=0.000000D+00  E= 4.008803D+00
              MO Center= -2.7D-18, -7.6D-18, -9.6D-02, r^2= 3.0D-01
   Bfn.  Coefficient  Atom+Function         Bfn.  Coefficient  Atom+Function  
  ----- ------------  ---------------      ----- ------------  ---------------
    19      0.979527  2 F  d  2              15     -0.201314  2 F  d -2       

 Vector   16  Occ=0.000000D+00  E= 4.008803D+00
              MO Center= -7.9D-18,  2.7D-18, -9.6D-02, r^2= 3.0D-01
   Bfn.  Coefficient  Atom+Function         Bfn.  Coefficient  Atom+Function  
  ----- ------------  ---------------      ----- ------------  ---------------
    15      0.979527  2 F  d -2              19      0.201314  2 F  d  2       

 Vector   17  Occ=0.000000D+00  E= 4.238291D+00
              MO Center=  3.8D-19,  3.3D-18, -4.0D-02, r^2= 3.9D-01
   Bfn.  Coefficient  Atom+Function         Bfn.  Coefficient  Atom+Function  
  ----- ------------  ---------------      ----- ------------  ---------------
    18      0.878116  2 F  d  1              16     -0.531880  2 F  d -1       
     3      0.304255  1 H  px                 4      0.184289  1 H  py         

 Vector   18  Occ=0.000000D+00  E= 4.238291D+00
              MO Center=  7.1D-18, -7.6D-18, -4.0D-02, r^2= 3.9D-01
   Bfn.  Coefficient  Atom+Function         Bfn.  Coefficient  Atom+Function  
  ----- ------------  ---------------      ----- ------------  ---------------
    16      0.878116  2 F  d -1              18      0.531880  2 F  d  1       
     4     -0.304255  1 H  py                 3      0.184289  1 H  px         

 Vector   19  Occ=0.000000D+00  E= 4.990546D+00
              MO Center= -2.9D-18, -7.1D-17, -1.8D-02, r^2= 5.3D-01
   Bfn.  Coefficient  Atom+Function         Bfn.  Coefficient  Atom+Function  
  ----- ------------  ---------------      ----- ------------  ---------------
     8     -1.328462  2 F  s                  1      1.221651  1 H  s          
    17     -1.150456  2 F  d  0              14     -0.898989  2 F  pz         
     5     -0.894038  1 H  pz                 7      0.336507  2 F  s          
     6      0.186307  2 F  s                 11     -0.155928  2 F  pz         
     2      0.150392  1 H  s          


 center of mass
 --------------
 x =   0.00000000 y =   0.00000000 z =  -0.09027308

 moments of inertia (a.u.)
 ------------------
           3.167105165531           0.000000000000           0.000000000000
           0.000000000000           3.167105165531           0.000000000000
           0.000000000000           0.000000000000           0.000000000000

  Mulliken analysis of the total density
  --------------------------------------

   Bfn.    Population  Atom+Function
   ---------------------------------
     1      0.590823    1 H  s          
     2      0.037668    1 H  s          
     3      0.020415    1 H  px         
     4      0.020415    1 H  py         
     5      0.053766    1 H  pz         
     6      2.001235    2 F  s          
     7      0.896203    2 F  s          
     8      0.987939    2 F  s          
     9      1.201271    2 F  px         
    10      1.201271    2 F  py         
    11      0.905029    2 F  pz         
    12      0.777878    2 F  px         
    13      0.777878    2 F  py         
    14      0.524021    2 F  pz         
    15      0.000000    2 F  d -2       
    16      0.000436    2 F  d -1       
    17      0.003316    2 F  d  0       
    18      0.000436    2 F  d  1       
    19      0.000000    2 F  d  2       

    Atom       Charge   Shell Charges
 -----------   ------   -------------------------------------------------------
    1 H    1     0.72   0.59  0.04  0.09
    2 F    9     9.28   2.00  0.90  0.99  3.31  2.08  0.00

       Multipole analysis of the density wrt the origin
       ------------------------------------------------

     L   x y z        total         open         nuclear
     -   - - -        -----         ----         -------
     0   0 0 0     -0.000000      0.000000     10.000000

     1   1 0 0     -0.000000      0.000000      0.000000
     1   0 1 0     -0.000000      0.000000      0.000000
     1   0 0 1      0.802904      0.000000      0.000000

     2   2 0 0     -4.038454      0.000000      0.000000
     2   1 1 0     -0.000000      0.000000      0.000000
     2   1 0 1     -0.000000      0.000000      0.000000
     2   0 2 0     -4.038454      0.000000      0.000000
     2   0 1 1     -0.000000      0.000000      0.000000
     2   0 0 2     -2.387695      0.000000      2.978297


 Wrote molecular orbitals to ./tce_hf_0.96264.movecs


 Parallel integral file used       1 records with       0 large values


 Read molecular orbitals from ./tce_hf_0.96264.movecs


 Schwarz integral screening summary 
 ---------------------------------- 

        No. of atom pairs =       3
       No. of shell pairs =      45

 Atomic screening 

   value      no.     value      no.     value      no.     value      no.   
  -------- ------    -------- ------    -------- ------    -------- ------   
  0.00D+00      0    1.00D-13      0    1.00D-12      0    1.00D-11      0
  1.00D-10      0    1.00D-09      0    1.00D-08      0    1.00D-07      0
  1.00D-06      0    1.00D-05      0    1.00D-04      0    1.00D-03      0
  1.00D-02      0    1.00D-01      0    1.00D+00      3    1.00D+01      0


 Shell screening 

   value      no.     value      no.     value      no.     value      no.   
  -------- ------    -------- ------    -------- ------    -------- ------   
  0.00D+00      0    1.00D-13      0    1.00D-12      0    1.00D-11      0
  1.00D-10      0    1.00D-09      0    1.00D-08      0    1.00D-07      0
  1.00D-06      0    1.00D-05      0    1.00D-04      0    1.00D-03      0
  1.00D-02      0    1.00D-01     12    1.00D+00     33    1.00D+01      0


                   NWChem Extensible Many-Electron Theory Module
                   ---------------------------------------------

              ======================================================
                   This portion of the program was automatically
                  generated by a Tensor Contraction Engine (TCE).
                  The development of this portion of the program
                 and TCE was supported by US Department of Energy,
                Office of Science, Office of Basic Energy Science.
                      TCE is a product of Battelle and PNNL.
              Please cite: S.Hirata, J.Phys.Chem.A 107, 9887 (2003).
              ======================================================

            General Information
            -------------------
      Number of processors :     1
         Wavefunction type : Restricted Hartree-Fock
          No. of electrons :    10
           Alpha electrons :     5
            Beta electrons :     5
           No. of orbitals :    38
            Alpha orbitals :    19
             Beta orbitals :    19
        Alpha frozen cores :     0
         Beta frozen cores :     0
     Alpha frozen virtuals :     0
      Beta frozen virtuals :     0
         Spin multiplicity : singlet 
    Number of AO functions :    19
       Number of AO shells :     9
        Use of symmetry is : off
      Symmetry adaption is : off
         Schwarz screening : 0.10D-09

          Correlation Information
          -----------------------
          Calculation type : Coupled-cluster singles & doubles                           
   Perturbative correction : none                                                        
            Max iterations :      100
        Residual threshold : 0.10D-07
     T(0) DIIS level shift : 0.00D+00
     L(0) DIIS level shift : 0.00D+00
     T(1) DIIS level shift : 0.00D+00
     L(1) DIIS level shift : 0.00D+00
     T(R) DIIS level shift : 0.00D+00
     T(I) DIIS level shift : 0.00D+00
   CC-T/L Amplitude update :  5-th order DIIS
                I/O scheme : Global Array Library
        L-threshold :  0.10D-07
        EOM-threshold :  0.10D-07
 no EOMCCSD initial starts read in
 TCE RESTART OPTIONS
 READ_INT:   F
 WRITE_INT:  F
 READ_TA:    F
 WRITE_TA:   F
 READ_XA:    F
 WRITE_XA:   F
 READ_IN3:   F
 WRITE_IN3:  F
 SLICE:      F
 D4D5:       F
 quantumc:   F
 qrotation:  F
 qducc:      T
 nacto:                         0
 nrotv:                         0
 nrot:                          0

            Memory Information
            ------------------
          Available GA space size is     402652823 doubles
          Available MA space size is     402651564 doubles

 Maximum block size        32 doubles

 tile_dim =     14

 Block   Spin    Irrep     Size     Offset   Alpha
 -------------------------------------------------
   1    alpha     a      5 doubles       0       1
   2    beta      a      5 doubles       5       1
   3    alpha     a     14 doubles      10       3
   4    beta      a     14 doubles      24       3

 Global array virtual files algorithm will be used

 Parallel file system coherency ......... OK

 Setting fock-build task_bf   :      -1
                    maxquartet:   10000
                    maxeri    :  129600
                    maxscr    :       0
                    intacc    : 0.0D+00
                    denscreen : T
                    dentol    : 1.0D-06

   0: nuse=   1(   1.0) avail=   434875Mb (out of   434875Mb) on .

 #quartets = 1.035D+03 #integrals = 4.841D+03 #direct =  0.0% #cached =100.0%


 Integral file          = ./tce_hf_0.96264.aoints.0
 Record size in doubles =  65536        No. of integs per rec  =  43688
 Max. records in memory =      2        Max. records in file   = 826261
 No. of bits per label  =      8        No. of bits per value  =     64


 Fock matrix recomputed
 1-e file size   =              361
 1-e file name   = ./tce_hf_0.96264.f1
 Cpu & wall time / sec            0.0            0.0
 4-electron integrals stored in orbital form

 v2    file size   =            64311
 4-index algorithm nr.  13 is used
 imaxsize =       30
 imaxsize ichop =        0
 Cpu & wall time / sec            0.1            0.1
 T1-number-of-tasks                    1

 t1 file size   =               70
 t1 file name   = ./tce_hf_0.96264.t1
 t1 file handle =       -998
 T2-number-of-boxes                    2

 t2 file size   =             9800
 t2 file name   = ./tce_hf_0.96264.t2
 t2 file handle =       -996

 CCSD iterations
 -----------------------------------------------------------------
 Iter          Residuum       Correlation     Cpu    Wall    V2*C2
 -----------------------------------------------------------------
    1   0.1036590916583  -0.2056711201265     0.0     0.0     0.0
    2   0.0269824551110  -0.2075934922161     0.0     0.0     0.0
    3   0.0093209662403  -0.2098337937254     0.0     0.0     0.0
    4   0.0036135473184  -0.2103144859234     0.0     0.0     0.0
    5   0.0014425852646  -0.2105077362490     0.0     0.0     0.0
 MICROCYCLE DIIS UPDATE:                    5                    5
    6   0.0001733228597  -0.2106076561121     0.0     0.0     0.0
    7   0.0000816668349  -0.2106189503988     0.0     0.0     0.0
    8   0.0000320043200  -0.2106200080293     0.0     0.0     0.0
    9   0.0000170335794  -0.2106201767354     0.0     0.0     0.0
   10   0.0000081157298  -0.2106204192660     0.0     0.0     0.0
 MICROCYCLE DIIS UPDATE:                   10                    5
   11   0.0000006836113  -0.2106206300979     0.0     0.0     0.0
   12   0.0000001756917  -0.2106206162255     0.0     0.0     0.0
   13   0.0000000624537  -0.2106206217438     0.0     0.0     0.0
   14   0.0000000272330  -0.2106206209372     0.0     0.0     0.0
   15   0.0000000114840  -0.2106206208308     0.0     0.0     0.0
 MICROCYCLE DIIS UPDATE:                   15                    5
   16   0.0000000021194  -0.2106206204801     0.0     0.0     0.0
 -----------------------------------------------------------------
 Iterations converged
 CCSD correlation energy / hartree =        -0.210620620480061
 CCSD total energy / hartree       =      -100.226202483748764

 Singles contributions

 Doubles contributions
 Ground state specification:
 exp(T)|Ref>~(1+T)|Ref>
 ------- a(p)+/a(q) strings ----------

 singles norm

 doubles norm

 Reference string
   1.0000000000000000      :(1a)+ (2a)+ (3a)+ (4a)+ (5a)+ (1b)+ (2b)+ (3b)+ (4b)+ (5b)+ |0>

 Singles strings

 Doubles strings
 -------------------------------------
 enrep_tce =    4.9474312733704018     
  EHF(total)         =      -100.01558186
  Shift (HFtot-HFA)  =         0.00000000
 ALL OCCUPIED ORBITALS ARE ACTIVE IN DUCC --> NO SHIFT
 Number of active orbitals                   10
 Number of active alpha electrons                    5
 Number of active beta electrons                    5
  nos                    10
  nvs                    28
 noas                     5
 nobs                     5
 nvas                    14
 nvbs                    14
 nactv                     5
 From DUCC CCSD corr. ene. -0.21062062048006183     
 From DUCC CCSD corr. ene.-e-part  0.14052743316578339     
 begin_one_electron_integrals
    1    1       -40.9664241776
    1    2         0.7380106609
    1    3        -0.1590370640
    1    6        -0.1626029385
    1    7        -0.0891189714
    1   10         0.1950788159
    2    1         0.7380106609
    2    2        -9.3263483806
    2    3         0.3097512611
    2    6         0.9173018284
    2    7         0.4729257224
    2   10        -0.4480386751
    3    1        -0.1590370640
    3    2         0.3097512611
    3    3        -7.9418541044
    3    6         1.0531677719
    3    7         1.1708944156
    3   10         1.7379031394
    4    4        -8.4617530993
    4    8        -0.7945954402
    4    9        -2.0004974699
    5    5        -8.4617530993
    5    8         2.0004974699
    5    9        -0.7945954402
    6    1        -0.1626029385
    6    2         0.9173018284
    6    3         1.0531677719
    6    6        -3.7074897336
    6    7        -1.2642782715
    6   10        -0.4729380268
    7    1        -0.0891189714
    7    2         0.4729257224
    7    3         1.1708944156
    7    6        -1.2642782715
    7    7        -4.3853811605
    7   10        -0.5549263052
    8    4        -0.7945954402
    8    5         2.0004974699
    8    8        -5.4488261313
    9    4        -2.0004974699
    9    5        -0.7945954402
    9    9        -5.4488261313
   10    1         0.1950788159
   10    2        -0.4480386751
   10    3         1.7379031394
   10    6        -0.4729380268
   10    7        -0.5549263052
   10   10        -4.9379520724
 end_one_electron_integrals
 begin_two_electron_integrals
    1    1    1    1        5.3559263629
    2    1    1    1       -0.5232743949
    2    2    1    1        1.2457385494
    2    1    2    1        0.0816716968
    2    2    2    1       -0.0213276716
    2    2    2    2        0.8731188480
    3    1    1    1        0.1150500494
    3    2    1    1       -0.0923366849
    3    3    1    1        1.0780021510
    3    1    2    1       -0.0155414511
    3    1    2    2        0.0121324791
    3    2    2    1        0.0070808808
    3    2    2    2        0.0007189524
    3    3    2    1       -0.0131021256
    3    3    2    2        0.7836741464
    3    1    3    1        0.0306247747
    3    2    3    1        0.0290520100
    3    2    3    2        0.1583568992
    3    3    3    1       -0.0047253250
    3    3    3    2       -0.0313737340
    3    3    3    3        0.7775515602
    4    4    1    1        1.2213851744
    4    4    2    1       -0.0156062223
    4    4    2    2        0.8428970148
    4    4    3    1        0.0039579468
    4    4    3    2       -0.0414189412
    4    4    3    3        0.7396721676
    4    1    4    1        0.0371963332
    4    2    4    1        0.0386147873
    4    2    4    2        0.1587490707
    4    3    4    1       -0.0082371705
    4    3    4    2       -0.0262787111
    4    3    4    3        0.0390707840
    4    4    4    4        0.8827145078
    5    5    1    1        1.2213851744
    5    5    2    1       -0.0156062223
    5    5    2    2        0.8428970148
    5    5    3    1        0.0039579468
    5    5    3    2       -0.0414189412
    5    5    3    3        0.7396721676
    5    5    4    4        0.8002733631
    5    1    5    1        0.0371963332
    5    2    5    1        0.0386147873
    5    2    5    2        0.1587490707
    5    3    5    1       -0.0082371705
    5    3    5    2       -0.0262787111
    5    3    5    3        0.0390707840
    5    4    5    4        0.0393361642
    5    5    5    5        0.8827145078
    6    1    1    1        0.1245950202
    6    2    1    1       -0.1827009724
    6    3    1    1       -0.1953792985
    6    6    1    1        0.4482663207
    6    1    2    1       -0.0214099656
    6    1    2    2        0.0018898067
    6    2    2    1        0.0041942546
    6    2    2    2       -0.1022829041
    6    3    2    1        0.0027271313
    6    3    2    2       -0.1083758207
    6    6    2    1       -0.0024392810
    6    6    2    2        0.3998664976
    6    1    3    1       -0.0070395215
    6    1    3    2       -0.0135996312
    6    1    3    3        0.0056931970
    6    2    3    1       -0.0120281118
    6    2    3    2       -0.0308808064
    6    2    3    3       -0.0608662113
    6    3    3    1       -0.0023744037
    6    3    3    2        0.0223663129
    6    3    3    3       -0.0880333201
    6    6    3    1        0.0074781898
    6    6    3    2        0.0482715447
    6    6    3    3        0.3951344177
    6    1    4    4        0.0025786170
    6    2    4    4       -0.0912921911
    6    3    4    4       -0.1011554233
    6    4    4    1       -0.0071778335
    6    4    4    2       -0.0203302603
    6    4    4    3       -0.0065284729
    6    6    4    4        0.3777270998
    6    1    5    5        0.0025786170
    6    2    5    5       -0.0912921911
    6    3    5    5       -0.1011554233
    6    5    5    1       -0.0071778335
    6    5    5    2       -0.0203302603
    6    5    5    3       -0.0065284729
    6    6    5    5        0.3777270998
    6    1    6    1        0.0099763619
    6    2    6    1        0.0035105243
    6    2    6    2        0.0382396181
    6    3    6    1        0.0002447137
    6    3    6    2        0.0270439160
    6    3    6    3        0.0479870511
    6    4    6    4        0.0138381123
    6    5    6    5        0.0138381123
    6    6    6    1       -0.0020419023
    6    6    6    2       -0.0163133231
    6    6    6    3        0.0108007474
    6    6    6    6        0.3699159578
    7    1    1    1        0.0686314371
    7    2    1    1       -0.1051377545
    7    3    1    1       -0.2549351302
    7    6    1    1        0.1975768864
    7    7    1    1        0.6065913395
    7    1    2    1       -0.0128300068
    7    1    2    2       -0.0017059449
    7    2    2    1        0.0020170727
    7    2    2    2       -0.0501326540
    7    3    2    1        0.0062690510
    7    3    2    2       -0.1002710697
    7    6    2    1       -0.0030282178
    7    6    2    2        0.1330607039
    7    7    2    1       -0.0037308535
    7    7    2    2        0.5375932692
    7    1    3    1       -0.0145880543
    7    1    3    2       -0.0186107656
    7    1    3    3        0.0068002496
    7    2    3    1       -0.0135398429
    7    2    3    2       -0.0241122622
    7    2    3    3        0.0026956014
    7    3    3    1        0.0043367969
    7    3    3    2        0.0757451099
    7    3    3    3       -0.0735973208
    7    6    3    1        0.0051744814
    7    6    3    2        0.0254296866
    7    6    3    3        0.1335715942
    7    7    3    1        0.0081242954
    7    7    3    2        0.0912729942
    7    7    3    3        0.5637116461
    7    1    4    4        0.0008375173
    7    2    4    4       -0.0524335950
    7    3    4    4       -0.1094232724
    7    4    4    1       -0.0065397567
    7    4    4    2       -0.0291375782
    7    4    4    3       -0.0089508631
    7    6    4    4        0.1142678975
    7    7    4    4        0.4862861174
    7    1    5    5        0.0008375173
    7    2    5    5       -0.0524335950
    7    3    5    5       -0.1094232724
    7    5    5    1       -0.0065397567
    7    5    5    2       -0.0291375782
    7    5    5    3       -0.0089508631
    7    6    5    5        0.1142678975
    7    7    5    5        0.4862861174
    7    1    6    1        0.0100630386
    7    1    6    2        0.0061205366
    7    1    6    3        0.0006297805
    7    1    6    6       -0.0034945827
    7    2    6    1        0.0049249506
    7    2    6    2        0.0326850996
    7    2    6    3        0.0218266000
    7    2    6    6        0.0010981662
    7    3    6    1       -0.0033975029
    7    3    6    2        0.0246004318
    7    3    6    3        0.0633890963
    7    3    6    6        0.0272733078
    7    4    6    4        0.0106305584
    7    5    6    5        0.0106305584
    7    6    6    1       -0.0010397465
    7    6    6    2       -0.0175400800
    7    6    6    3       -0.0085747453
    7    6    6    6        0.0560533452
    7    7    6    1       -0.0018557572
    7    7    6    2       -0.0221973410
    7    7    6    3        0.0173669722
    7    7    6    6        0.4249406015
    7    1    7    1        0.0122877660
    7    2    7    1        0.0078119648
    7    2    7    2        0.0460696083
    7    3    7    1       -0.0041183077
    7    3    7    2        0.0346463726
    7    3    7    3        0.1254989484
    7    4    7    4        0.0165459523
    7    5    7    5        0.0165459523
    7    6    7    1       -0.0020610790
    7    6    7    2        0.0050567593
    7    6    7    3        0.0171058411
    7    6    7    6        0.0595533856
    7    7    7    1       -0.0032677819
    7    7    7    2        0.0412691629
    7    7    7    3        0.1051772090
    7    7    7    6        0.1421539235
    7    7    7    7        0.6753401757
    8    4    1    1        0.1814268812
    8    5    1    1       -0.4567657936
    8    8    1    1        0.9554215240
    8    4    2    1       -0.0054439957
    8    4    2    2        0.0708287700
    8    5    2    1        0.0137059680
    8    5    2    2       -0.1783206498
    8    8    2    1       -0.0157820942
    8    8    2    2        0.6711256933
    8    4    3    1        0.0000800880
    8    4    3    2       -0.0168054039
    8    4    3    3        0.0550696734
    8    5    3    1       -0.0002016321
    8    5    3    2        0.0423097921
    8    5    3    3       -0.1386450723
    8    8    3    1        0.0054255289
    8    8    3    2        0.0224569357
    8    8    3    3        0.6281101639
    8    1    4    1        0.0146169365
    8    1    4    2        0.0136379128
    8    1    4    3       -0.0030525336
    8    2    4    1        0.0076255429
    8    2    4    2        0.0146461797
    8    2    4    3       -0.0071417615
    8    3    4    1       -0.0030378867
    8    3    4    2       -0.0130576996
    8    3    4    3        0.0030796005
    8    4    4    4        0.0785310206
    8    5    4    4       -0.1728123925
    8    6    4    1       -0.0025068760
    8    6    4    2       -0.0127528539
    8    6    4    3       -0.0014974023
    8    7    4    1       -0.0011301056
    8    7    4    2       -0.0035112818
    8    7    4    3       -0.0044729748
    8    8    4    4        0.6376889934
    8    1    5    1       -0.0368000407
    8    1    5    2       -0.0343352209
    8    1    5    3        0.0076851508
    8    2    5    1       -0.0191982971
    8    2    5    2       -0.0368736643
    8    2    5    3        0.0179803143
    8    3    5    1        0.0076482752
    8    3    5    2        0.0328744588
    8    3    5    3       -0.0077532952
    8    4    5    4       -0.0126689357
    8    4    5    5        0.0686408962
    8    5    5    4        0.0048580368
    8    5    5    5       -0.1977120685
    8    6    5    1        0.0063113867
    8    6    5    2        0.0321069700
    8    6    5    3        0.0037699053
    8    7    5    1        0.0028451881
    8    7    5    2        0.0088401090
    8    7    5    3        0.0112612963
    8    8    5    4       -0.0169249075
    8    8    5    5        0.6735770965
    8    1    6    4       -0.0024946814
    8    1    6    5        0.0062806851
    8    2    6    4       -0.0054506632
    8    2    6    5        0.0137227542
    8    3    6    4       -0.0013330813
    8    3    6    5        0.0033562058
    8    4    6    1        0.0015059693
    8    4    6    2       -0.0156352447
    8    4    6    3       -0.0174534148
    8    4    6    6        0.0072378130
    8    5    6    1       -0.0037914737
    8    5    6    2        0.0393637641
    8    5    6    3        0.0439412441
    8    5    6    6       -0.0182221365
    8    6    6    4       -0.0001522687
    8    6    6    5        0.0003833563
    8    7    6    4        0.0016005683
    8    7    6    5       -0.0040296391
    8    8    6    1        0.0026023523
    8    8    6    2       -0.0522328308
    8    8    6    3       -0.0392180026
    8    8    6    6        0.3950911905
    8    1    7    4       -0.0021600012
    8    1    7    5        0.0054380842
    8    2    7    4       -0.0024231169
    8    2    7    5        0.0061005122
    8    3    7    4       -0.0016869433
    8    3    7    5        0.0042470994
    8    4    7    1        0.0011363044
    8    4    7    2       -0.0093914593
    8    4    7    3       -0.0262973799
    8    4    7    6        0.0112883694
    8    4    7    7        0.0124289188
    8    5    7    1       -0.0028607942
    8    5    7    2        0.0236442215
    8    5    7    3        0.0662070777
    8    5    7    6       -0.0284199397
    8    5    7    7       -0.0312914211
    8    6    7    4        0.0030980809
    8    6    7    5       -0.0077998221
    8    7    7    4        0.0007020142
    8    7    7    5       -0.0017674121
    8    8    7    1        0.0006292100
    8    8    7    2       -0.0137495243
    8    8    7    3       -0.0182078805
    8    8    7    6        0.1086295691
    8    8    7    7        0.5255300631
    8    1    8    1        0.0407196801
    8    2    8    1        0.0204775940
    8    2    8    2        0.0469210637
    8    3    8    1       -0.0079167853
    8    3    8    2        0.0007899900
    8    3    8    3        0.0343609653
    8    4    8    4        0.0330849155
    8    5    8    4       -0.0447466515
    8    5    8    5        0.1279671146
    8    6    8    1       -0.0062159387
    8    6    8    2        0.0059669009
    8    6    8    3        0.0176810556
    8    6    8    6        0.0270389084
    8    7    8    1       -0.0027392772
    8    7    8    2        0.0040417224
    8    7    8    3        0.0129025032
    8    7    8    6        0.0138899465
    8    7    8    7        0.0245325526
    8    8    8    4        0.0427898969
    8    8    8    5       -0.1077291362
    8    8    8    8        0.6228707169
    9    4    1    1        0.4567657936
    9    5    1    1        0.1814268812
    9    9    1    1        0.9554215240
    9    4    2    1       -0.0137059680
    9    4    2    2        0.1783206498
    9    5    2    1       -0.0054439957
    9    5    2    2        0.0708287700
    9    9    2    1       -0.0157820942
    9    9    2    2        0.6711256933
    9    4    3    1        0.0002016321
    9    4    3    2       -0.0423097921
    9    4    3    3        0.1386450723
    9    5    3    1        0.0000800880
    9    5    3    2       -0.0168054039
    9    5    3    3        0.0550696734
    9    9    3    1        0.0054255289
    9    9    3    2        0.0224569357
    9    9    3    3        0.6281101639
    9    1    4    1        0.0368000407
    9    1    4    2        0.0343352209
    9    1    4    3       -0.0076851508
    9    2    4    1        0.0191982971
    9    2    4    2        0.0368736643
    9    2    4    3       -0.0179803143
    9    3    4    1       -0.0076482752
    9    3    4    2       -0.0328744588
    9    3    4    3        0.0077532952
    9    4    4    4        0.1977120685
    9    5    4    4        0.0686408962
    9    6    4    1       -0.0063113867
    9    6    4    2       -0.0321069700
    9    6    4    3       -0.0037699053
    9    7    4    1       -0.0028451881
    9    7    4    2       -0.0088401090
    9    7    4    3       -0.0112612963
    9    8    4    4        0.0169249075
    9    9    4    4        0.6735770965
    9    1    5    1        0.0146169365
    9    1    5    2        0.0136379128
    9    1    5    3       -0.0030525336
    9    2    5    1        0.0076255429
    9    2    5    2        0.0146461797
    9    2    5    3       -0.0071417615
    9    3    5    1       -0.0030378867
    9    3    5    2       -0.0130576996
    9    3    5    3        0.0030796005
    9    4    5    4        0.0050320876
    9    4    5    5        0.1728123925
    9    5    5    4        0.0122307402
    9    5    5    5        0.0785310206
    9    6    5    1       -0.0025068760
    9    6    5    2       -0.0127528539
    9    6    5    3       -0.0014974023
    9    7    5    1       -0.0011301056
    9    7    5    2       -0.0035112818
    9    7    5    3       -0.0044729748
    9    8    5    4       -0.0178359812
    9    8    5    5       -0.0169249075
    9    9    5    4        0.0169249075
    9    9    5    5        0.6376889934
    9    1    6    4       -0.0062806851
    9    1    6    5       -0.0024946814
    9    2    6    4       -0.0137227542
    9    2    6    5       -0.0054506632
    9    3    6    4       -0.0033562058
    9    3    6    5       -0.0013330813
    9    4    6    1        0.0037914737
    9    4    6    2       -0.0393637641
    9    4    6    3       -0.0439412441
    9    4    6    6        0.0182221365
    9    5    6    1        0.0015059693
    9    5    6    2       -0.0156352447
    9    5    6    3       -0.0174534148
    9    5    6    6        0.0072378130
    9    6    6    4       -0.0003833563
    9    6    6    5       -0.0001522687
    9    7    6    4        0.0040296391
    9    7    6    5        0.0016005683
    9    9    6    1        0.0026023523
    9    9    6    2       -0.0522328308
    9    9    6    3       -0.0392180026
    9    9    6    6        0.3950911905
    9    1    7    4       -0.0054380842
    9    1    7    5       -0.0021600012
    9    2    7    4       -0.0061005122
    9    2    7    5       -0.0024231169
    9    3    7    4       -0.0042470994
    9    3    7    5       -0.0016869433
    9    4    7    1        0.0028607942
    9    4    7    2       -0.0236442215
    9    4    7    3       -0.0662070777
    9    4    7    6        0.0284199397
    9    4    7    7        0.0312914211
    9    5    7    1        0.0011363044
    9    5    7    2       -0.0093914593
    9    5    7    3       -0.0262973799
    9    5    7    6        0.0112883694
    9    5    7    7        0.0124289188
    9    6    7    4        0.0077998221
    9    6    7    5        0.0030980809
    9    7    7    4        0.0017674121
    9    7    7    5        0.0007020142
    9    9    7    1        0.0006292100
    9    9    7    2       -0.0137495243
    9    9    7    3       -0.0182078805
    9    9    7    6        0.1086295691
    9    9    7    7        0.5255300631
    9    4    8    4        0.0447466515
    9    4    8    5       -0.0940651820
    9    4    8    8        0.0996950369
    9    5    8    4       -0.0008170171
    9    5    8    5       -0.0447466515
    9    5    8    8        0.0395987613
    9    8    8    4        0.0040346854
    9    8    8    5        0.0016025727
    9    9    8    4        0.0395987613
    9    9    8    5       -0.0996950369
    9    9    8    8        0.5717593887
    9    1    9    1        0.0407196801
    9    2    9    1        0.0204775940
    9    2    9    2        0.0469210637
    9    3    9    1       -0.0079167853
    9    3    9    2        0.0007899900
    9    3    9    3        0.0343609653
    9    4    9    4        0.1279671146
    9    5    9    4        0.0447466515
    9    5    9    5        0.0330849155
    9    6    9    1       -0.0062159387
    9    6    9    2        0.0059669009
    9    6    9    3        0.0176810556
    9    6    9    6        0.0270389084
    9    7    9    1       -0.0027392772
    9    7    9    2        0.0040417224
    9    7    9    3        0.0129025032
    9    7    9    6        0.0138899465
    9    7    9    7        0.0245325526
    9    8    9    4        0.0015885629
    9    8    9    5       -0.0039994139
    9    8    9    8        0.0255556641
    9    9    9    4        0.1077291362
    9    9    9    5        0.0427898969
    9    9    9    9        0.6228707169
   10    1    1    1       -0.1492108324
   10    2    1    1        0.1147893184
   10    3    1    1       -0.3794086756
   10    6    1    1        0.1008169234
   10    7    1    1        0.1515434721
   10   10    1    1        0.8554550327
   10    1    2    1        0.0213790025
   10    1    2    2       -0.0124218031
   10    2    2    1       -0.0068825548
   10    2    2    2        0.0336903106
   10    3    2    1        0.0115438923
   10    3    2    2       -0.1654660640
   10    6    2    1       -0.0023684628
   10    6    2    2        0.0464406886
   10    7    2    1       -0.0058594322
   10    7    2    2        0.0381752877
   10   10    2    1       -0.0134941389
   10   10    2    2        0.6147712090
   10    1    3    1       -0.0325007698
   10    1    3    2       -0.0258933570
   10    1    3    3        0.0036296163
   10    2    3    1       -0.0132341833
   10    2    3    2       -0.0436285220
   10    2    3    3        0.0265901397
   10    3    3    1        0.0007038780
   10    3    3    2       -0.0103489946
   10    3    3    3       -0.1483440146
   10    6    3    1        0.0049052588
   10    6    3    2        0.0308039854
   10    6    3    3        0.0381051844
   10    7    3    1       -0.0004768120
   10    7    3    2       -0.0155176642
   10    7    3    3        0.0316455067
   10   10    3    1       -0.0072293708
   10   10    3    2       -0.0744976202
   10   10    3    3        0.6186812947
   10    1    4    4       -0.0038829840
   10    2    4    4        0.0514297933
   10    3    4    4       -0.1481657015
   10    4    4    1        0.0098327476
   10    4    4    2        0.0303238794
   10    4    4    3       -0.0118630206
   10    6    4    4        0.0348845118
   10    7    4    4        0.0391424474
   10    8    4    1        0.0030751547
   10    8    4    2        0.0076096401
   10    8    4    3       -0.0085157866
   10    9    4    1        0.0077421023
   10    9    4    2        0.0191582596
   10    9    4    3       -0.0214396013
   10   10    4    4        0.6042722769
   10    1    5    5       -0.0038829840
   10    2    5    5        0.0514297933
   10    3    5    5       -0.1481657015
   10    5    5    1        0.0098327476
   10    5    5    2        0.0303238794
   10    5    5    3       -0.0118630206
   10    6    5    5        0.0348845118
   10    7    5    5        0.0391424474
   10    8    5    1       -0.0077421023
   10    8    5    2       -0.0191582596
   10    8    5    3        0.0214396013
   10    9    5    1        0.0030751547
   10    9    5    2        0.0076096401
   10    9    5    3       -0.0085157866
   10   10    5    5        0.6042722769
   10    1    6    1        0.0055668037
   10    1    6    2        0.0111411670
   10    1    6    3        0.0025359321
   10    1    6    6       -0.0067659939
   10    2    6    1        0.0075411938
   10    2    6    2        0.0050933980
   10    2    6    3        0.0017566546
   10    2    6    6        0.0029382207
   10    3    6    1       -0.0038445348
   10    3    6    2        0.0351532747
   10    3    6    3        0.0293494129
   10    3    6    6       -0.0398215198
   10    4    6    4       -0.0019430344
   10    5    6    5       -0.0019430344
   10    6    6    1       -0.0011022435
   10    6    6    2       -0.0128873784
   10    6    6    3        0.0015376801
   10    6    6    6        0.0335009324
   10    7    6    1        0.0019599104
   10    7    6    2       -0.0103849673
   10    7    6    3       -0.0134964473
   10    7    6    6        0.0088709042
   10    8    6    4        0.0001628668
   10    8    6    5       -0.0004100384
   10    9    6    4        0.0004100384
   10    9    6    5        0.0001628668
   10   10    6    1        0.0067089161
   10   10    6    2       -0.0343249462
   10   10    6    3       -0.0826099985
   10   10    6    6        0.3188245981
   10    1    7    1        0.0137603040
   10    1    7    2        0.0125385107
   10    1    7    3       -0.0030648368
   10    1    7    6       -0.0048654388
   10    1    7    7       -0.0072789278
   10    2    7    1        0.0095806325
   10    2    7    2        0.0057859456
   10    2    7    3       -0.0199153027
   10    2    7    6       -0.0023091591
   10    2    7    7       -0.0031872798
   10    3    7    1       -0.0039488520
   10    3    7    2        0.0082745733
   10    3    7    3        0.0309344310
   10    3    7    6       -0.0372009528
   10    3    7    7       -0.0902839736
   10    4    7    4       -0.0010328358
   10    5    7    5       -0.0010328358
   10    6    7    1       -0.0019974037
   10    6    7    2       -0.0069660030
   10    6    7    3        0.0040190879
   10    6    7    6        0.0160316265
   10    6    7    7        0.0483283111
   10    7    7    1        0.0018971679
   10    7    7    2       -0.0113656010
   10    7    7    3       -0.0332682645
   10    7    7    6        0.0062175064
   10    7    7    7       -0.0091432181
   10    8    7    4        0.0016552496
   10    8    7    5       -0.0041673065
   10    9    7    4        0.0041673065
   10    9    7    5        0.0016552496
   10   10    7    1        0.0076899641
   10   10    7    2       -0.0019280497
   10   10    7    3       -0.0845257141
   10   10    7    6        0.0821463127
   10   10    7    7        0.4071993508
   10    1    8    4       -0.0002429699
   10    1    8    5        0.0006117085
   10    1    8    8       -0.0054325697
   10    2    8    4        0.0118264707
   10    2    8    5       -0.0297746796
   10    2    8    8        0.0318370501
   10    3    8    4       -0.0286663867
   10    3    8    5        0.0721713607
   10    3    8    8       -0.1102895860
   10    4    8    1        0.0035240840
   10    4    8    2        0.0050304196
   10    4    8    3       -0.0069452455
   10    4    8    6       -0.0011816321
   10    4    8    7        0.0010511991
   10    5    8    1       -0.0088723404
   10    5    8    2       -0.0126647361
   10    5    8    3        0.0174855597
   10    5    8    6        0.0029749126
   10    5    8    7       -0.0026465305
   10    6    8    4        0.0049121253
   10    6    8    5       -0.0123669149
   10    6    8    8        0.0430277605
   10    7    8    4        0.0123700267
   10    7    8    5       -0.0311431528
   10    7    8    8        0.0204888726
   10    8    8    1        0.0081448213
   10    8    8    2        0.0162281126
   10    8    8    3       -0.0036454552
   10    8    8    6        0.0050097461
   10    8    8    7        0.0049215922
   10   10    8    4        0.0394701907
   10   10    8    5       -0.0993713438
   10   10    8    8        0.4950131493
   10    1    9    4       -0.0006117085
   10    1    9    5       -0.0002429699
   10    1    9    9       -0.0054325697
   10    2    9    4        0.0297746796
   10    2    9    5        0.0118264707
   10    2    9    9        0.0318370501
   10    3    9    4       -0.0721713607
   10    3    9    5       -0.0286663867
   10    3    9    9       -0.1102895860
   10    4    9    1        0.0088723404
   10    4    9    2        0.0126647361
   10    4    9    3       -0.0174855597
   10    4    9    6       -0.0029749126
   10    4    9    7        0.0026465305
   10    5    9    1        0.0035240840
   10    5    9    2        0.0050304196
   10    5    9    3       -0.0069452455
   10    5    9    6       -0.0011816321
   10    5    9    7        0.0010511991
   10    6    9    4        0.0123669149
   10    6    9    5        0.0049121253
   10    6    9    9        0.0430277605
   10    7    9    4        0.0311431528
   10    7    9    5        0.0123700267
   10    7    9    9        0.0204888726
   10    9    9    1        0.0081448213
   10    9    9    2        0.0162281126
   10    9    9    3       -0.0036454552
   10    9    9    6        0.0050097461
   10    9    9    7        0.0049215922
   10   10    9    4        0.0993713438
   10   10    9    5        0.0394701907
   10   10    9    9        0.4950131493
   10    1   10    1        0.0339423308
   10    2   10    1        0.0121103008
   10    2   10    2        0.0408386516
   10    3   10    1       -0.0003346229
   10    3   10    2       -0.0259093914
   10    3   10    3        0.1011115865
   10    4   10    4        0.0200755511
   10    5   10    5        0.0200755511
   10    6   10    1       -0.0044724380
   10    6   10    2        0.0057438068
   10    6   10    3       -0.0335545461
   10    6   10    6        0.0226307519
   10    7   10    1       -0.0000260731
   10    7   10    2        0.0136096105
   10    7   10    3       -0.0271586341
   10    7   10    6        0.0109644313
   10    7   10    7        0.0248664187
   10    8   10    4        0.0017553506
   10    8   10    5       -0.0044193236
   10    8   10    8        0.0203233244
   10    9   10    4        0.0044193236
   10    9   10    5        0.0017553506
   10    9   10    9        0.0203233244
   10   10   10    1        0.0052224769
   10   10   10    2        0.0058390388
   10   10   10    3       -0.0582546190
   10   10   10    6       -0.0079309165
   10   10   10    7        0.0153390589
   10   10   10   10        0.6009194273
 end_two_electron_integrals
 fcidump
      5.3559263629     1   1   1   1
     -0.5232743949     2   1   1   1
      0.0816716968     2   1   2   1
      1.2457385494     2   2   1   1
     -0.0213276716     2   2   2   1
      0.8731188480     2   2   2   2
      0.1150500494     3   1   1   1
     -0.0155414511     3   1   2   1
      0.0121324791     3   1   2   2
      0.0306247747     3   1   3   1
     -0.0923366849     3   2   1   1
      0.0070808808     3   2   2   1
      0.0007189524     3   2   2   2
      0.0290520100     3   2   3   1
      0.1583568992     3   2   3   2
      1.0780021510     3   3   1   1
     -0.0131021256     3   3   2   1
      0.7836741464     3   3   2   2
     -0.0047253250     3   3   3   1
     -0.0313737340     3   3   3   2
      0.7775515602     3   3   3   3
      0.0371963332     4   1   4   1
      0.0386147873     4   2   4   1
      0.1587490707     4   2   4   2
     -0.0082371705     4   3   4   1
     -0.0262787111     4   3   4   2
      0.0390707840     4   3   4   3
      1.2213851744     4   4   1   1
     -0.0156062223     4   4   2   1
      0.8428970148     4   4   2   2
      0.0039579468     4   4   3   1
     -0.0414189412     4   4   3   2
      0.7396721676     4   4   3   3
      0.8827145078     4   4   4   4
      0.0371963332     5   1   5   1
      0.0386147873     5   2   5   1
      0.1587490707     5   2   5   2
     -0.0082371705     5   3   5   1
     -0.0262787111     5   3   5   2
      0.0390707840     5   3   5   3
      0.0393361642     5   4   5   4
      1.2213851744     5   5   1   1
     -0.0156062223     5   5   2   1
      0.8428970148     5   5   2   2
      0.0039579468     5   5   3   1
     -0.0414189412     5   5   3   2
      0.7396721676     5   5   3   3
      0.8002733631     5   5   4   4
      0.8827145078     5   5   5   5
      0.1245950202     6   1   1   1
     -0.0214099656     6   1   2   1
      0.0018898067     6   1   2   2
     -0.0070395215     6   1   3   1
     -0.0135996312     6   1   3   2
      0.0056931970     6   1   3   3
      0.0025786170     6   1   4   4
      0.0025786170     6   1   5   5
      0.0099763619     6   1   6   1
     -0.1827009724     6   2   1   1
      0.0041942546     6   2   2   1
     -0.1022829041     6   2   2   2
     -0.0120281118     6   2   3   1
     -0.0308808064     6   2   3   2
     -0.0608662113     6   2   3   3
     -0.0912921911     6   2   4   4
     -0.0912921911     6   2   5   5
      0.0035105243     6   2   6   1
      0.0382396181     6   2   6   2
     -0.1953792985     6   3   1   1
      0.0027271313     6   3   2   1
     -0.1083758207     6   3   2   2
     -0.0023744037     6   3   3   1
      0.0223663129     6   3   3   2
     -0.0880333201     6   3   3   3
     -0.1011554233     6   3   4   4
     -0.1011554233     6   3   5   5
      0.0002447137     6   3   6   1
      0.0270439160     6   3   6   2
      0.0479870511     6   3   6   3
     -0.0071778335     6   4   4   1
     -0.0203302603     6   4   4   2
     -0.0065284729     6   4   4   3
      0.0138381123     6   4   6   4
     -0.0071778335     6   5   5   1
     -0.0203302603     6   5   5   2
     -0.0065284729     6   5   5   3
      0.0138381123     6   5   6   5
      0.4482663207     6   6   1   1
     -0.0024392810     6   6   2   1
      0.3998664976     6   6   2   2
      0.0074781898     6   6   3   1
      0.0482715447     6   6   3   2
      0.3951344177     6   6   3   3
      0.3777270998     6   6   4   4
      0.3777270998     6   6   5   5
     -0.0020419023     6   6   6   1
     -0.0163133231     6   6   6   2
      0.0108007474     6   6   6   3
      0.3699159578     6   6   6   6
      0.0686314371     7   1   1   1
     -0.0128300068     7   1   2   1
     -0.0017059449     7   1   2   2
     -0.0145880543     7   1   3   1
     -0.0186107656     7   1   3   2
      0.0068002496     7   1   3   3
      0.0008375173     7   1   4   4
      0.0008375173     7   1   5   5
      0.0100630386     7   1   6   1
      0.0061205366     7   1   6   2
      0.0006297805     7   1   6   3
     -0.0034945827     7   1   6   6
      0.0122877660     7   1   7   1
     -0.1051377545     7   2   1   1
      0.0020170727     7   2   2   1
     -0.0501326540     7   2   2   2
     -0.0135398429     7   2   3   1
     -0.0241122622     7   2   3   2
      0.0026956014     7   2   3   3
     -0.0524335950     7   2   4   4
     -0.0524335950     7   2   5   5
      0.0049249506     7   2   6   1
      0.0326850996     7   2   6   2
      0.0218266000     7   2   6   3
      0.0010981662     7   2   6   6
      0.0078119648     7   2   7   1
      0.0460696083     7   2   7   2
     -0.2549351302     7   3   1   1
      0.0062690510     7   3   2   1
     -0.1002710697     7   3   2   2
      0.0043367969     7   3   3   1
      0.0757451099     7   3   3   2
     -0.0735973208     7   3   3   3
     -0.1094232724     7   3   4   4
     -0.1094232724     7   3   5   5
     -0.0033975029     7   3   6   1
      0.0246004318     7   3   6   2
      0.0633890963     7   3   6   3
      0.0272733078     7   3   6   6
     -0.0041183077     7   3   7   1
      0.0346463726     7   3   7   2
      0.1254989484     7   3   7   3
     -0.0065397567     7   4   4   1
     -0.0291375782     7   4   4   2
     -0.0089508631     7   4   4   3
      0.0106305584     7   4   6   4
      0.0165459523     7   4   7   4
     -0.0065397567     7   5   5   1
     -0.0291375782     7   5   5   2
     -0.0089508631     7   5   5   3
      0.0106305584     7   5   6   5
      0.0165459523     7   5   7   5
      0.1975768864     7   6   1   1
     -0.0030282178     7   6   2   1
      0.1330607039     7   6   2   2
      0.0051744814     7   6   3   1
      0.0254296866     7   6   3   2
      0.1335715942     7   6   3   3
      0.1142678975     7   6   4   4
      0.1142678975     7   6   5   5
     -0.0010397465     7   6   6   1
     -0.0175400800     7   6   6   2
     -0.0085747453     7   6   6   3
      0.0560533452     7   6   6   6
     -0.0020610790     7   6   7   1
      0.0050567593     7   6   7   2
      0.0171058411     7   6   7   3
      0.0595533856     7   6   7   6
      0.6065913395     7   7   1   1
     -0.0037308535     7   7   2   1
      0.5375932692     7   7   2   2
      0.0081242954     7   7   3   1
      0.0912729942     7   7   3   2
      0.5637116461     7   7   3   3
      0.4862861174     7   7   4   4
      0.4862861174     7   7   5   5
     -0.0018557572     7   7   6   1
     -0.0221973410     7   7   6   2
      0.0173669722     7   7   6   3
      0.4249406015     7   7   6   6
     -0.0032677819     7   7   7   1
      0.0412691629     7   7   7   2
      0.1051772090     7   7   7   3
      0.1421539235     7   7   7   6
      0.6753401757     7   7   7   7
      0.0146169365     8   1   4   1
      0.0136379128     8   1   4   2
     -0.0030525336     8   1   4   3
     -0.0368000407     8   1   5   1
     -0.0343352209     8   1   5   2
      0.0076851508     8   1   5   3
     -0.0024946814     8   1   6   4
      0.0062806851     8   1   6   5
     -0.0021600012     8   1   7   4
      0.0054380842     8   1   7   5
      0.0407196801     8   1   8   1
      0.0076255429     8   2   4   1
      0.0146461797     8   2   4   2
[...]
 tce:restart_ignore_failure           logical[4]      Tue Jul 30 17:22:48 2019 
 tce:guess_lr_real                    logical[1]      Tue Jul 30 17:22:48 2019 
 basis:ao basis:tags info                 int[280]    Tue Jul 30 17:22:48 2019 
 tce:skip_t                           logical[1]      Tue Jul 30 17:22:48 2019 
 tce:hbard                                int[1]      Tue Jul 30 17:22:48 2019 
 tce:diagnt1                          logical[1]      Tue Jul 30 17:22:48 2019 
 geometry:geometry:zmt_ijkang_frz        logical[160]    Tue Jul 30 17:22:48 2019 
 tce:read_integrals                   logical[5]      Tue Jul 30 17:22:48 2019 
 tce:bnumfreq                             int[1]      Tue Jul 30 17:22:48 2019 
 tce:ccsdvar                             char[5]      Tue Jul 30 17:22:48 2019 
 tce:lineresp                         logical[1]      Tue Jul 30 17:22:48 2019 
 tce:save_l                           logical[4]      Tue Jul 30 17:22:48 2019 
 tce:ichopx                               int[1]      Tue Jul 30 17:22:48 2019 
 tce:nogamma                          logical[1]      Tue Jul 30 17:22:48 2019 
 scf:dipole                            double[3]      Tue Jul 30 17:22:48 2019 
 geometry:ngeom                           int[1]      Tue Jul 30 17:22:48 2019 
 tce:uact                                 int[1]      Tue Jul 30 17:22:48 2019 
 geometry:geometry:zmt_ijklto             int[640]    Tue Jul 30 17:22:48 2019 
 tce:save_tr                          logical[8]      Tue Jul 30 17:22:48 2019 
 geometry:geometry:zmt_ijklnb             int[640]    Tue Jul 30 17:22:48 2019 
 geometry:geometry:operators           double[2304]   Tue Jul 30 17:22:48 2019 
 tce:zlshiftl                          double[1]      Tue Jul 30 17:22:48 2019 
 tce:skip_tr                          logical[1]      Tue Jul 30 17:22:48 2019 
 basis:ao basis:star nr tags              int[1]      Tue Jul 30 17:22:48 2019 
 geometry:geometry:zmt_ijkang_val         double[160]    Tue Jul 30 17:22:48 2019 
 tce:anumfreq                             int[1]      Tue Jul 30 17:22:48 2019 
 geometry:geometry:zmt_ijklto_nam           char[160]    Tue Jul 30 17:22:48 2019 
 geometry:geometry:zmt_ijklop_frz        logical[160]    Tue Jul 30 17:22:48 2019 
 tce:save_t                           logical[4]      Tue Jul 30 17:22:48 2019 
 geometry:geometry:zmt_varsign         double[1]      Tue Jul 30 17:22:48 2019 
 geometry:geometry:recip vectors         double[3]      Tue Jul 30 17:22:48 2019 
 tce:model                               char[5]      Tue Jul 30 17:22:48 2019 
 tce:maxiter                              int[1]      Tue Jul 30 17:22:48 2019 
 tce:symmetry                         logical[1]      Tue Jul 30 17:22:48 2019 
 tce:save_x                           logical[4]      Tue Jul 30 17:22:48 2019 
 geometry:geometry:no. unique centers            int[1]      Tue Jul 30 17:22:48 2019 
 basis:ao basis:contraction info            int[90000]  Tue Jul 30 17:22:48 2019 
 tce:save_y                           logical[4]      Tue Jul 30 17:22:48 2019 
 geometry:geometry:zmt_izmat              int[3]      Tue Jul 30 17:22:48 2019 
 basis:ao basis:bs_nr_tags                int[1]      Tue Jul 30 17:22:48 2019 
 geometry:geometry:zmt_ijklop_val         double[160]    Tue Jul 30 17:22:48 2019 
 geometry:geometry:group number            int[1]      Tue Jul 30 17:22:48 2019 
 tce:nactv                                int[1]      Tue Jul 30 17:22:48 2019 
 tce:active_va                            int[1]      Tue Jul 30 17:22:48 2019 
 geometry:geometry:recip angles         double[3]      Tue Jul 30 17:22:48 2019 
 tce:active_vb                            int[1]      Tue Jul 30 17:22:48 2019 
 tce:active_oa                            int[1]      Tue Jul 30 17:22:48 2019 
 tce:active_ob                            int[1]      Tue Jul 30 17:22:48 2019 
 geometry:geometry:zmt_varname           char[2]      Tue Jul 30 17:22:48 2019 
 tce:thresh                            double[1]      Tue Jul 30 17:22:48 2019 
 geometry:geometry:system type            int[1]      Tue Jul 30 17:22:48 2019 
 tce:energy                            double[1]      Tue Jul 30 17:22:59 2019 
 tce:nopolar                          logical[1]      Tue Jul 30 17:22:48 2019 
 basis:ao basis:bs_stdname               char[16]     Tue Jul 30 17:22:48 2019 
 geometry:geometry:charges             double[2]      Tue Jul 30 17:22:48 2019 
 tce:respaxis                         logical[3]      Tue Jul 30 17:22:48 2019 
 tce:perturbative                        char[5]      Tue Jul 30 17:22:48 2019 
 scf:multiplicity                        char[8]      Tue Jul 30 17:22:48 2019 
 geometry:geometry:zmt_nizmat             int[1]      Tue Jul 30 17:22:48 2019 
 scf:output vectors                      char[24]     Tue Jul 30 17:22:48 2019 
 basis:ao basis:header                    int[7]      Tue Jul 30 17:22:48 2019 
 geometry:geometry:zmt_cvr_scaling         double[1]      Tue Jul 30 17:22:48 2019 
 geometry:geometry:tags                  char[4]      Tue Jul 30 17:22:48 2019 
 scf:input vectors                       char[24]     Tue Jul 30 17:22:48 2019 
 geometry:geometry:zmt_ijklnb_nam           char[160]    Tue Jul 30 17:22:48 2019 
 geometry:geometry:zmt_ijklto_frz        logical[160]    Tue Jul 30 17:22:48 2019 
 geometry:geometry:include_bqbq        logical[1]      Tue Jul 30 17:22:48 2019 
 tce:qducc                            logical[1]      Tue Jul 30 17:22:48 2019 
 geometry:geometry:zmt_ijklop             int[640]    Tue Jul 30 17:22:48 2019 
 geometry:geometry:group name            char[3]      Tue Jul 30 17:22:48 2019 
 tce:model2e                             char[6]      Tue Jul 30 17:22:48 2019 
 tce:eactmax                           double[1]      Tue Jul 30 17:22:48 2019 
 tce:zlshift2                          double[2]      Tue Jul 30 17:22:48 2019 
 tce:eactmin                           double[1]      Tue Jul 30 17:22:48 2019 
 basisprint:ao basis                  logical[1]      Tue Jul 30 17:22:48 2019 
 tce:oact                                 int[1]      Tue Jul 30 17:22:48 2019 
 tce:zlshift3                          double[2]      Tue Jul 30 17:22:48 2019 
 tce:densmat                          logical[1]      Tue Jul 30 17:22:48 2019 
 tce:nroots                               int[1]      Tue Jul 30 17:22:48 2019 
 geometry:geometry:zmt_ijklto_val         double[160]    Tue Jul 30 17:22:48 2019 
 geometry:geometry:zmt_maxtor             int[1]      Tue Jul 30 17:22:48 2019 
 scf:converged                        logical[1]      Tue Jul 30 17:22:48 2019 
 scf:nelec                                int[1]      Tue Jul 30 17:22:48 2019 
 tce:maxdiff                           double[1]      Tue Jul 30 17:22:48 2019 
 tce:guess_qr_real                    logical[1]      Tue Jul 30 17:22:48 2019 
 basis:ao basis:number of exps and coeffs            int[1]      Tue Jul 30 17:22:48 2019 
 geometry:names                          char[9]      Tue Jul 30 17:22:48 2019 
 geometry:geometry:masses              double[2]      Tue Jul 30 17:22:48 2019 
 tce:zlshift                           double[1]      Tue Jul 30 17:22:48 2019 
 tce:eoms                                 int[1]      Tue Jul 30 17:22:48 2019 
 tce:ampnorms                         logical[1]      Tue Jul 30 17:22:48 2019 
 scf:scftype                             char[4]      Tue Jul 30 17:22:48 2019 
 tce:diis2                                int[1]      Tue Jul 30 17:22:48 2019 
 tce:read_l                           logical[4]      Tue Jul 30 17:22:48 2019 
 tce:enegr                             double[1]      Tue Jul 30 17:22:59 2019 
 basis:ao basis:exps and coeffs         double[54]     Tue Jul 30 17:22:48 2019 
 tce:diis3                                int[1]      Tue Jul 30 17:22:48 2019 
 geometry:geometry:unique centers            int[2]      Tue Jul 30 17:22:48 2019 
 tce:read_lr                          logical[8]      Tue Jul 30 17:22:48 2019 
 geometry:geometry:zmt_ijbond_nam           char[160]    Tue Jul 30 17:22:48 2019 
 geometry:geometry:amatrix             double[9]      Tue Jul 30 17:22:48 2019 
 geometry:geometry:inv nuc expon         double[2]      Tue Jul 30 17:22:48 2019 
 geometry:geometry:zmt_ijklnb_val         double[160]    Tue Jul 30 17:22:48 2019 
 geometry:geometry:vel                 double[6]      Tue Jul 30 17:22:48 2019 
 geometry:geometry:zmt_ijklnb_frz        logical[160]    Tue Jul 30 17:22:48 2019 
 task:status                          logical[1]      Tue Jul 30 17:22:59 2019 
 geometry:geometry:direct volume         double[1]      Tue Jul 30 17:22:48 2019 
 tce:afreq                             double[1]      Tue Jul 30 17:22:48 2019 
 geometry:geometry:num_operators            int[1]      Tue Jul 30 17:22:48 2019 
 tce:read_t                           logical[4]      Tue Jul 30 17:22:48 2019 
 tce:save_interval                        int[1]      Tue Jul 30 17:22:48 2019 
 basis:nbasis                             int[1]      Tue Jul 30 17:22:48 2019 
 file_prefix                             char[15]     Tue Jul 30 17:22:48 2019 
 geometry:geometry:primitive_center           char[2]      Tue Jul 30 17:22:48 2019 
 task:energy                           double[1]      Tue Jul 30 17:22:59 2019 
 geometry:geometry:ncenter                int[1]      Tue Jul 30 17:22:48 2019 
 tce:idiskx                               int[1]      Tue Jul 30 17:22:48 2019 
 tce:damp2                             double[1]      Tue Jul 30 17:22:48 2019 
 geometry:geometry:zmt_nzvar              int[1]      Tue Jul 30 17:22:48 2019 
 tce:quadresp                         logical[1]      Tue Jul 30 17:22:48 2019 
 tce:damp3                             double[1]      Tue Jul 30 17:22:48 2019 
 scf:thresh                            double[1]      Tue Jul 30 17:22:48 2019 
 scf:energy                            double[1]      Tue Jul 30 17:22:48 2019 
 tce:read_tr                          logical[8]      Tue Jul 30 17:22:48 2019 
 tce:read_x                           logical[4]      Tue Jul 30 17:22:48 2019 
 basis:ao basis:assoc ecp name           char[4]      Tue Jul 30 17:22:48 2019 
 tce:read_y                           logical[4]      Tue Jul 30 17:22:48 2019 
 geometry:geometry:zmt_ijbond             int[320]    Tue Jul 30 17:22:48 2019 
 geometry:geometry:zmt_source            char[6]      Tue Jul 30 17:22:48 2019 
 geometry:geometry:setting number            int[1]      Tue Jul 30 17:22:48 2019 
 tce:act_excit_lvl                        int[1]      Tue Jul 30 17:22:48 2019 
 basis:ao basis:bs_tags                  char[4]      Tue Jul 30 17:22:48 2019 
 tce:i4im                                 int[1]      Tue Jul 30 17:22:48 2019 
 scf:tol2e                             double[1]      Tue Jul 30 17:22:48 2019 
 tce:diis                                 int[1]      Tue Jul 30 17:22:48 2019 
 tce:recompf                          logical[1]      Tue Jul 30 17:22:48 2019 
 rtdb:stored:state                    logical[3]      Tue Jul 30 17:22:48 2019 
 scf:alpha irreps                         int[19]     Tue Jul 30 17:22:48 2019 
 tce:module                              char[4]      Tue Jul 30 17:22:48 2019 
 geometry:geometry:zmt_ijbond_frz        logical[160]    Tue Jul 30 17:22:48 2019 
 tce:target                               int[1]      Tue Jul 30 17:22:48 2019 
 tce:left                             logical[1]      Tue Jul 30 17:22:48 2019 


 HDBM usage statistics
 ---------------------
 Reads         = 1961
 Inserts       = 1090
 Replaces      = 374
 Extracts      = 0
 Deletes       = 2166
 Reuses        = 16

 Memory allocs = 10084
 Memory frees  = 10084
 Memory max    = 1519711
 Memory in use = 0

 IO seeks      = 4093
 IO reads      = 2982
 IO writes     = 3289
 IO nread      = 3222420
 IO nwrite     = 2392636

 Summary of allocated global arrays
-----------------------------------
  No active global arrays



                         GA Statistics for process    0
                         ------------------------------

       create   destroy   get      put      acc     scatter   gather  read&inc
calls: 2105     2105     6695     2681     3632        0        0     4357     
number of processes/call 4.67e+14 -2.88e+15 2.07e+13 0.00e+00 0.00e+00
bytes total:             1.86e+08 9.53e+06 4.47e+07 0.00e+00 0.00e+00 3.49e+04
bytes remote:            0.00e+00 0.00e+00 0.00e+00 0.00e+00 0.00e+00 0.00e+00
Max memory consumed for GA by this process: 1663800 bytes

MA_summarize_allocated_blocks: starting scan ...
MA_summarize_allocated_blocks: scan completed: 0 heap blocks, 0 stack blocks
MA usage statistics:

	allocation statistics:
					      heap	     stack
					      ----	     -----
	current number of blocks	         0	         0
	maximum number of blocks	        17	        40
	current total bytes		         0	         0
	maximum total bytes		   1060368	  55520424
	maximum total K-bytes		      1061	     55521
	maximum total M-bytes		         2	        56

	calls per routine:
		        39  MA_alloc_get
		        39  MA_allocate_heap
		       172  MA_chop_stack
		        39  MA_free_heap
		         0  MA_free_heap_piece
		     15483  MA_get_index
		         5  MA_get_mbase
		         0  MA_get_next_memhandle
		         0  MA_get_numalign
		        47  MA_get_pointer
		         1  MA_init
		         0  MA_initialized
		         0  MA_init_memhandle_iterator
		       230  MA_inquire_avail
		         1  MA_inquire_heap
		         0  MA_inquire_heap_check_stack
		         0  MA_inquire_heap_no_partition
		         1  MA_inquire_stack
		         0  MA_inquire_stack_check_heap
		         0  MA_inquire_stack_no_partition
		     15242  MA_pop_stack
		         1  MA_print_stats
		     15444  MA_push_get
		     15491  MA_push_stack
		         3  MA_set_auto_verify
		         1  MA_set_error_print
		         3  MA_set_hard_fail
		         1  MA_set_numalign
		      9295  MA_sizeof
		        24  MA_sizeof_overhead
		         1  MA_summarize_allocated_blocks
		         0  MA_trace
		     56060  MA_verify_allocator_stuff


                                     CITATION
                                     --------
                Please cite the following reference when publishing
                           results obtained with NWChem:

                 M. Valiev, E.J. Bylaska, N. Govind, K. Kowalski,
              T.P. Straatsma, H.J.J. van Dam, D. Wang, J. Nieplocha,
                        E. Apra, T.L. Windus, W.A. de Jong
                 "NWChem: a comprehensive and scalable open-source
                  solution for large scale molecular simulations"
                      Comput. Phys. Commun. 181, 1477 (2010)
                           doi:10.1016/j.cpc.2010.04.018

                                      AUTHORS
                                      -------
          E. Apra, E. J. Bylaska, W. A. de Jong, N. Govind, K. Kowalski,
       T. P. Straatsma, M. Valiev, H. J. J. van Dam, D. Wang, T. L. Windus,
        J. Hammond, J. Autschbach, K. Bhaskaran-Nair, J. Brabec, K. Lopata,
    S. A. Fischer, S. Krishnamoorthy, M. Jacquelin, W. Ma, M. Klemm, O. Villa,
      Y. Chen, V. Anisimov, F. Aquino, S. Hirata, M. T. Hackler, V. Konjkov,
            D. Mejia-Rodriguez, T. Risthaus, M. Malagoli, A. Marenich,
   A. Otero-de-la-Roza, J. Mullin, P. Nichols, R. Peverati, J. Pittner, Y. Zhao,
        P.-D. Fan, A. Fonari, M. J. Williamson, R. J. Harrison, J. R. Rehr,
      M. Dupuis, D. Silverstein, D. M. A. Smith, J. Nieplocha, V. Tipparaju,
    M. Krishnan, B. E. Van Kuiken, A. Vazquez-Mayagoitia, L. Jensen, M. Swart,
      Q. Wu, T. Van Voorhis, A. A. Auer, M. Nooijen, L. D. Crosby, E. Brown,
      G. Cisneros, G. I. Fann, H. Fruchtl, J. Garza, K. Hirao, R. A. Kendall,
      J. A. Nichols, K. Tsemekhman, K. Wolinski, J. Anchell, D. E. Bernholdt,
      P. Borowski, T. Clark, D. Clerc, H. Dachsel, M. J. O. Deegan, K. Dyall,
    D. Elwood, E. Glendening, M. Gutowski, A. C. Hess, J. Jaffe, B. G. Johnson,
     J. Ju, R. Kobayashi, R. Kutteh, Z. Lin, R. Littlefield, X. Long, B. Meng,
      T. Nakajima, S. Niu, L. Pollack, M. Rosing, K. Glaesemann, G. Sandrone,
      M. Stave, H. Taylor, G. Thomas, J. H. van Lenthe, A. T. Wong, Z. Zhang.

                                    REFERENCES
                                    ----------

          Where appropriate, please cite the following reference(s) 
          when publishing results obtained with NWChem:


     1. D. E. Bernholdt, E. Apra, H. A. Fruchtl, M.F. Guest, R. J. Harrison, 
        R. A. Kendall, R. A. Kutteh, X. Long, J. B. Nicholas, J. A. Nichols, 
        H. L. Taylor, A. T. Wong, G. I. Fann, R. J. Littlefield and
        J. Nieplocha,
        "Parallel Computational Chemistry Made Easier: 
        The Development of NWChem,"
        Int. J. Quantum Chem. Symposium  29, 475-483 (1995).


     2. M. F. Guest, E. Apra, D. E. Bernholdt, H. A. Fruchtl, R. J. Harrison, 
        R. A. Kendall, R. A. Kutteh, X. Long, J. B. Nicholas, J. A. Nichols, 
        H. L. Taylor, A. T. Wong, G. I. Fann, R. J. Littlefield and
        J. Nieplocha,
        "High Performance Computational Chemistry: NWChem and Fully Distributed
        Parallel Applications", in Advances in Parallel Computing, 10, High
        Performance Computing: Technology, Methods, and Applications, Eds. 
        J. Dongarra, L. Gradinetti, G. Joubert, and J. Kowalik, 
        (Elsevier Science B. V. pp. 395-427, 1995).


     3. M. F. Guest, E. Apra, D. E. Bernholdt, H. A. Fruchtl, R. J. Harrison, 
        R. A. Kendall, R. A. Kutteh, J. B. Nicholas, J. A. Nichols, M. S. Stave,
        A. T. Wong, R. J. Littlefield and J. Nieplocha, "High Performance 
        Computational Chemistry: Towards Fully Distributed Parallel Algorithms",
        in High Performance Computing: Symposium 1995, Grand Challenges in 
        Computer Simulation, Adrian M. Tentner, Editor, Proceedings of the 1995 
        Simulation Multiconference, April 9-13, 1995, Phoenix, Arizona, 
        Simulation Councils, Inc., The Society for Computer Simulation, 
        San Diego, CA, 1995. pp. 511-521.


     4. M. F. Guest, E. Apra, D. E. Bernholdt, H. A. Fruchtl, R. J. Harrison,
        R. A. Kendall, R. A. Kutteh, X. Long, J. B. Nicholas, J. A. Nichols, 
        H. L. Taylor, A. T. Wong, G. I. Fann, R. J. Littlefield and
        J. Nieplocha,
        "Advances in Parallel Distributed Data Software; Computational Chemistry
        and NWChem", in Applied Parallel Computing.  Computations in Physics,
        Chemistry, and Engineering Science, Eds. J. Wasnieski, J. Dongarra, and 
        K. Madsen, Lecture Notes in Computer Science, 1041,
        (Springer-Verlag, Berlin, 278-294, 1996).


     5. M. F. Guest, E. Apra, D. E. Bernholdt, H. A. Fruchtl, R. J. Harrison,
        R. A. Kendall, R. A. Kutteh, X. Long, J. B. Nicholas, J. A. Nichols, 
        H. L. Taylor, A. T. Wong, G. I. Fann, R. J. Littlefield and
        J. Nieplocha, 
        "High-Performance Computing in Chemistry; NWChem", Future 
        Generations Computer Systems  12(4), 273, (1996).


     6. R. A. Kendall, E. Apra, D. E. Bernholdt, E. J. Bylaska, M. Dupuis,
        G. I. Fann, R. J. Harrison, J. Ju, J. A. Nichols, J. Nieplocha,
        T. P. Straatsma, T. L. Windus, A. T. Wong,
        Computer Phys. Comm. 128, 260 (2000).


     7. T. P. Straatsma and V. Helms, in Molecular Dynamics on Parallel
        Computers2000, R. Esser et al. editors, p 70.


     8.  T. P. Straatsma, M. Philippopoulos and J. A. McCammon,
         Computer Phys. Comm. 128, 377 (2000).


     9.  M. Valiev, E. J. Bylaska, A. Gramada, and J. H. Weare,
         Reviews in Modern Quantum Chemistry, pages 1684-1734
         (World Scientific, Singapore, 2002).


    10.  E. J. Bylaska, M. Valiev, R. Kawai, and J. H. Weare,
         Computer Phys. Comm. 143, 11 (2002).


    11.  M. Valiev and J. H. Weare,
         J. Phys. Chem. A, 103, 10588 (1999).



 Total times  cpu:       11.2s     wall:       11.2s
