 argument  1 = originalHF.nw
  NWChem w/ OpenMP: maximum threads =    4



============================== echo of input deck ==============================
start tce_hf_2.7504

echo
memory total 6 gb
print high

geometry units angstrom
symmetry c1
H  0.0000000  0.0000  2.7504
F  0.0000000  0.0000  0.00000
end


basis spherical
H library cc-pvdz
F library cc-pvdz
end

scf
thresh 1.0e-10
tol2e 1.0e-10
singlet
rhf
end

tce
2eorb
2emet 13
thresh 1.0d-8
ccsd
end

set tce:qducc T
set tce:nactv 5

task tce energy

================================================================================


                                         
                                         


              Northwest Computational Chemistry Package (NWChem) 6.8
              ------------------------------------------------------


                    Environmental Molecular Sciences Laboratory
                       Pacific Northwest National Laboratory
                                Richland, WA 99352

                              Copyright (c) 1994-2018
                       Pacific Northwest National Laboratory
                            Battelle Memorial Institute

             NWChem is an open-source computational chemistry package
                        distributed under the terms of the
                      Educational Community License (ECL) 2.0
             A copy of the license is included with this distribution
                              in the LICENSE.TXT file

                                  ACKNOWLEDGMENT
                                  --------------

            This software and its documentation were developed at the
            EMSL at Pacific Northwest National Laboratory, a multiprogram
            national laboratory, operated for the U.S. Department of Energy
            by Battelle under Contract Number DE-AC05-76RL01830. Support
            for this work was provided by the Department of Energy Office
            of Biological and Environmental Research, Office of Basic
            Energy Sciences, and the Office of Advanced Scientific Computing.


           Job information
           ---------------

    hostname        = WE27583
    program         = /Users/lamm799/nwchem/bin/MACX64/nwchem
    date            = Wed Jul 31 08:47:43 2019

    compiled        = Mon_Jul_15_13:12:43_2019
    source          = /Users/lamm799/nwchem
    nwchem branch   = Development
    nwchem revision = nwchem_on_git-975-g459e4567d
    ga revision     = 5.7.0
    use scalapack   = F
    input           = originalHF.nw
    prefix          = tce_hf_2.7504.
    data base       = ./tce_hf_2.7504.db
    status          = startup
    nproc           =        1
    time left       =     -1s



           Memory information
           ------------------

    heap     =  201326588 doubles =   1536.0 Mbytes
    stack    =  201326593 doubles =   1536.0 Mbytes
    global   =  402653184 doubles =   3072.0 Mbytes (distinct from heap & stack)
    total    =  805306365 doubles =   6144.0 Mbytes
    verify   = yes
    hardfail = no 


           Directory information
           ---------------------

  0 permanent = .
  0 scratch   = .




                                NWChem Input Module
                                -------------------



 Scaling coordinates for geometry "geometry" by  1.889725989
 (inverse scale =  0.529177249)

 Turning off AUTOSYM since
 SYMMETRY directive was detected!

     MOLECULAR POINT GROUP NUMBER =  1     SCHOENFLIES SYMBOL = C1        

                --------------- GROUP GENERATORS ---------------

                      1 GENERATORS USED TO FORM THE GROUP

                         PT fold Rotoinversion Operator
                     1.000000  0.000000  0.000000  0.000000
                     0.000000  1.000000  0.000000  0.000000
                     0.000000  0.000000  1.000000  0.000000


The   1 symmetry operators (excl. E) are as follows:



                    ---------- FULL LISTING OF GROUP ----------

                  MATRIX REPRESENTATIONS OF THE GROUP OPERATORS

     EXCLUDING THE IDENTITY OPERATOR THERE ARE  1 OPERATORS IN THIS GROUP

                         pt fold Rotoinversion Operator
                     1.000000  0.000000  0.000000  0.000000
                     0.000000  1.000000  0.000000  0.000000
                     0.000000  0.000000  1.000000  0.000000


                  <<< SYMMETRY OPERATION/ATOM MAPPING BUILT >>>
      Symmetry information
      --------------------

 Group name             C1        
 Group number              1
 Group order               1
 No. of unique centers     2



                  Character table for group C1      

                  1e     
        a          1.000

      Symmetry unique atoms

     1    2

      Mapping of centers


      Group operations



          ------
          auto-z
          ------
     1 autoz failed with cvr_scaling = 1.2 changing to 1.3
     2 autoz failed with cvr_scaling = 1.3 changing to 1.4
     3 autoz failed with cvr_scaling = 1.4 changing to 1.5
     4 autoz failed with cvr_scaling = 1.5 changing to 1.6
     5 autoz failed with cvr_scaling = 1.6 changing to 1.7

 AUTOZ failed to generate good internal coordinates.
 Cartesian coordinates will be used in optimizations.



                             Geometry "geometry" -> ""
                             -------------------------

 Output coordinates in angstroms (scale by  1.889725989 to convert to a.u.)

  No.       Tag          Charge          X              Y              Z
 ---- ---------------- ---------- -------------- -------------- --------------
    1 H                    1.0000     0.00000000     0.00000000     2.47536000
    2 F                    9.0000     0.00000000     0.00000000    -0.27504000

      Atomic Mass 
      ----------- 

      H                  1.007825
      F                 18.998400


 Effective nuclear repulsion energy (a.u.)       1.7316009457

            Nuclear Dipole moment (a.u.) 
            ----------------------------
        X                 Y               Z
 ---------------- ---------------- ----------------
     0.0000000000     0.0000000000     0.0000000000


            XYZ format geometry
            -------------------
     2
 geometry
 H                     0.00000000     0.00000000     2.47536000
 F                     0.00000000     0.00000000    -0.27504000

                      Basis "ao basis" -> "" (spherical)
                      -----
  H (Hydrogen)
  ------------
            Exponent  Coefficients 
       -------------- ---------------------------------------------------------
  1 S  1.30100000E+01  0.019685
  1 S  1.96200000E+00  0.137977
  1 S  4.44600000E-01  0.478148

  2 S  1.22000000E-01  1.000000

  3 P  7.27000000E-01  1.000000

  F (Fluorine)
  ------------
            Exponent  Coefficients 
       -------------- ---------------------------------------------------------
  1 S  1.47100000E+04  0.000721
  1 S  2.20700000E+03  0.005553
  1 S  5.02800000E+02  0.028267
  1 S  1.42600000E+02  0.106444
  1 S  4.64700000E+01  0.286814
  1 S  1.67000000E+01  0.448641
  1 S  6.35600000E+00  0.264761
  1 S  1.31600000E+00  0.015333

  2 S  1.47100000E+04 -0.000165
  2 S  2.20700000E+03 -0.001308
  2 S  5.02800000E+02 -0.006495
  2 S  1.42600000E+02 -0.026691
  2 S  4.64700000E+01 -0.073690
  2 S  1.67000000E+01 -0.170776
  2 S  6.35600000E+00 -0.112327
  2 S  1.31600000E+00  0.562814

  3 S  3.89700000E-01  1.000000

  4 P  2.26700000E+01  0.044878
  4 P  4.97700000E+00  0.235718
  4 P  1.34700000E+00  0.508521

  5 P  3.47100000E-01  1.000000

  6 D  1.64000000E+00  1.000000



 Summary of "ao basis" -> "" (spherical)
 ------------------------------------------------------------------------------
       Tag                 Description            Shells   Functions and Types
 ---------------- ------------------------------  ------  ---------------------
 H                          cc-pvdz                  3        5   2s1p
 F                          cc-pvdz                  6       14   3s2p1d



 Setting fock-build task_bf   :      -1
                    maxquartet:   10000
                    maxeri    :  129600
                    maxscr    :       0
                    intacc    : 0.0D+00
                    denscreen : T
                    dentol    : 1.0D-06

                                 NWChem SCF Module
                                 -----------------



  ao basis        = "ao basis"
  functions       =    19
  atoms           =     2
  closed shells   =     5
  open shells     =     0
  charge          =   0.00
  wavefunction    = RHF 
  input vectors   = atomic
  output vectors  = ./tce_hf_2.7504.movecs
  use symmetry    = F
  symmetry adapt  = F


 Summary of "ao basis" -> "ao basis" (spherical)
 ------------------------------------------------------------------------------
       Tag                 Description            Shells   Functions and Types
 ---------------- ------------------------------  ------  ---------------------
 H                          cc-pvdz                  3        5   2s1p
 F                          cc-pvdz                  6       14   3s2p1d




                         Geometry "geometry" -> "geometry"
                         ---------------------------------

 Output coordinates in angstroms (scale by  1.889725989 to convert to a.u.)

  No.       Tag          Charge          X              Y              Z
 ---- ---------------- ---------- -------------- -------------- --------------
    1 H                    1.0000     0.00000000     0.00000000     2.47536000
    2 F                    9.0000     0.00000000     0.00000000    -0.27504000

      Atomic Mass 
      ----------- 

      H                  1.007825
      F                 18.998400


 Effective nuclear repulsion energy (a.u.)       1.7316009457

            Nuclear Dipole moment (a.u.) 
            ----------------------------
        X                 Y               Z
 ---------------- ---------------- ----------------
     0.0000000000     0.0000000000     0.0000000000


                      Basis "ao basis" -> "ao basis" (spherical)
                      -----
  H (Hydrogen)
  ------------
            Exponent  Coefficients 
       -------------- ---------------------------------------------------------
  1 S  1.30100000E+01  0.019685
  1 S  1.96200000E+00  0.137977
  1 S  4.44600000E-01  0.478148

  2 S  1.22000000E-01  1.000000

  3 P  7.27000000E-01  1.000000

  F (Fluorine)
  ------------
            Exponent  Coefficients 
       -------------- ---------------------------------------------------------
  1 S  1.47100000E+04  0.000721
  1 S  2.20700000E+03  0.005553
  1 S  5.02800000E+02  0.028267
  1 S  1.42600000E+02  0.106444
  1 S  4.64700000E+01  0.286814
  1 S  1.67000000E+01  0.448641
  1 S  6.35600000E+00  0.264761
  1 S  1.31600000E+00  0.015333

  2 S  1.47100000E+04 -0.000165
  2 S  2.20700000E+03 -0.001308
  2 S  5.02800000E+02 -0.006495
  2 S  1.42600000E+02 -0.026691
  2 S  4.64700000E+01 -0.073690
  2 S  1.67000000E+01 -0.170776
  2 S  6.35600000E+00 -0.112327
  2 S  1.31600000E+00  0.562814

  3 S  3.89700000E-01  1.000000

  4 P  2.26700000E+01  0.044878
  4 P  4.97700000E+00  0.235718
  4 P  1.34700000E+00  0.508521

  5 P  3.47100000E-01  1.000000

  6 D  1.64000000E+00  1.000000



    Basis function labels
    ---------------------
       No.  Atm El Type
       ---  --- -- ----
        1    1 H  s          
        2    1 H  s          
        3    1 H  px         
        4    1 H  py         
        5    1 H  pz         
        6    2 F  s          
        7    2 F  s          
        8    2 F  s          
        9    2 F  px         
       10    2 F  py         
       11    2 F  pz         
       12    2 F  px         
       13    2 F  py         
       14    2 F  pz         
       15    2 F  d -2       
       16    2 F  d -1       
       17    2 F  d  0       
       18    2 F  d  1       
       19    2 F  d  2       

 Schwarz integral screening summary 
 ---------------------------------- 

        No. of atom pairs =       3
       No. of shell pairs =      45

 Atomic screening 

   value      no.     value      no.     value      no.     value      no.   
  -------- ------    -------- ------    -------- ------    -------- ------   
  0.00D+00      0    1.00D-13      0    1.00D-12      0    1.00D-11      0
  1.00D-10      0    1.00D-09      0    1.00D-08      0    1.00D-07      0
  1.00D-06      0    1.00D-05      0    1.00D-04      0    1.00D-03      0
  1.00D-02      0    1.00D-01      1    1.00D+00      2    1.00D+01      0


 Shell screening 

   value      no.     value      no.     value      no.     value      no.   
  -------- ------    -------- ------    -------- ------    -------- ------   
  0.00D+00      0    1.00D-13      0    1.00D-12      0    1.00D-11      0
  1.00D-10      0    1.00D-09      0    1.00D-08      0    1.00D-07      1
  1.00D-06      0    1.00D-05      2    1.00D-04      5    1.00D-03      2
  1.00D-02      6    1.00D-01      5    1.00D+00     24    1.00D+01      0



 Forming initial guess at       0.0s


      Superposition of Atomic Density Guess
      -------------------------------------

 Sum of atomic energies:         -99.88314519

      Non-variational initial energy
      ------------------------------

 Total energy =     -99.368412
 1-e energy   =    -143.249300
 2-e energy   =      42.149287
 HOMO         =      -0.577782
 LUMO         =      -0.193884


 Setting fock-build task_bf   :      -1
                    maxquartet:   10000
                    maxeri    :  129600
                    maxscr    :       0
                    intacc    : 0.0D+00
                    denscreen : T
                    dentol    : 1.0D-06


 Wrote molecular orbitals to ./tce_hf_2.7504.movecs


 Starting SCF solution at       0.1s

 ready to solve ...                    0


 ----------------------------------------------
         Quadratically convergent ROHF

 Convergence threshold     :          1.000E-10
 Maximum no. of iterations :           30
 Final Fock-matrix accuracy:          1.000E-10
 ----------------------------------------------

   0: nuse=   1(   0.9) avail=   434975Mb (out of   434975Mb) on .

 #quartets = 1.027D+03 #integrals = 4.686D+03 #direct =  0.0% #cached =100.0%


 Integral file          = ./tce_hf_2.7504.aoints.0
 Record size in doubles =  65536        No. of integs per rec  =  43688
 Max. records in memory =      2        Max. records in file   = 826451
 No. of bits per label  =      8        No. of bits per value  =     64


 Wrote rohf: cfock to ./tce_hf_2.7504.cfock


              iter       energy          gnorm     gmax       time
             ----- ------------------- --------- --------- --------
                 1      -99.4994851716  1.33D+00  6.15D-01      0.1

            ----- linear solve (tol: 1.0E-02 prod-acc: 1.6E-08) -----

               iter nbas    rnorm     rnorm-scal   ratio     time
               ---- ---- ----------- ----------- --------- -------
 rohf_wrap: in g_x =    1              1.32842262
 rohf_wrap: out g_x =    1              0.10340597
                  1    1  4.4053E-16  3.3162E-16    0.0000     0.1

                              ----- Line search ------

        step       energy         lsg     num-lsg   num-lsh   lsrat    time
      ------- ---------------- --------- --------- --------- ------- --------
       0.0000     -99.49948517 -1.32D-01  0.00D+00  0.00D+00 0.0D+00      0.1

 Wrote rohf: cfock to ./tce_hf_2.7504.cfock

       1.0000     -99.56992444 -7.80D-03 -8.31D-03  1.24D-01 5.9D-02      0.1

              iter       energy          gnorm     gmax       time
             ----- ------------------- --------- --------- --------
                 2      -99.5699244406  1.86D-01  1.49D-01      0.1
  Setting level-shift to   2.07 to force positive preconditioner

            ----- linear solve (tol: 1.0E-02 prod-acc: 2.2E-09) -----

               iter nbas    rnorm     rnorm-scal   ratio     time
               ---- ---- ----------- ----------- --------- -------
 rohf_wrap: in g_x =    1              0.18581961
 rohf_wrap: out g_x =    1              0.07451040
                  1    1  4.9136E-17  2.6443E-16    0.0000     0.1

                              ----- Line search ------

        step       energy         lsg     num-lsg   num-lsh   lsrat    time
      ------- ---------------- --------- --------- --------- ------- --------
       0.0000     -99.56992444 -1.19D-02  0.00D+00  0.00D+00 0.0D+00      0.1

 Wrote rohf: cfock to ./tce_hf_2.7504.cfock

       1.0000     -99.58334466 -1.46D-02 -1.48D-02 -2.69D-03 1.2D+00      0.1
                     Negative curvature: hessian=-2.69D-03

 Wrote rohf: cfock to ./tce_hf_2.7504.cfock

       1.5010     -99.59085967 -1.53D-02 -1.53D-02 -1.30D-03 1.3D+00      0.2
                     Negative curvature: hessian=-1.30D-03

 Wrote rohf: cfock to ./tce_hf_2.7504.cfock

       2.5030     -99.60616694 -1.49D-02 -1.51D-02  4.17D-04 1.2D+00      0.2
  restricting step size    35.646404356908967     

 Wrote rohf: cfock to ./tce_hf_2.7504.cfock

       3.7545     -99.62260766 -1.07D-02 -1.11D-02  3.32D-03 9.0D-01      0.2
  restricting step size    3.2281699330407303     

 Wrote rohf: cfock to ./tce_hf_2.7504.cfock

       5.6318     -99.63107388  3.12D-03  2.41D-03  7.37D-03 2.6D-01      0.2

 Wrote rohf: cfock to ./tce_hf_2.7504.cfock

       5.2079     -99.63156727 -7.32D-04 -7.64D-04  9.10D-03 6.1D-02      0.2

              iter       energy          gnorm     gmax       time
             ----- ------------------- --------- --------- --------
                 3      -99.6315672650  7.15D-01  3.35D-01      0.2

            ----- linear solve (tol: 1.0E-02 prod-acc: 8.5E-09) -----

               iter nbas    rnorm     rnorm-scal   ratio     time
               ---- ---- ----------- ----------- --------- -------
 rohf_wrap: in g_x =    1              0.71530684
 rohf_wrap: out g_x =    1              0.09488931
                  1    1  1.0436E-02  1.4589E-02    0.0000     0.2
 rohf_wrap: in g_x =    1              0.01043577
 rohf_wrap: out g_x =    1              0.00857606
                  2    2  1.4041E-03  1.9629E-03    0.1345     0.2

                              ----- Line search ------

        step       energy         lsg     num-lsg   num-lsh   lsrat    time
      ------- ---------------- --------- --------- --------- ------- --------
       0.0000     -99.63156727 -5.86D-02  0.00D+00  0.00D+00 0.0D+00      0.2

 Wrote rohf: cfock to ./tce_hf_2.7504.cfock

       1.0000     -99.57359628  1.85D-01  1.80D-01  2.44D-01 3.2D+00      0.2
                    Energy increase :             0.05797099 backtrack

 Wrote rohf: cfock to ./tce_hf_2.7504.cfock

       0.6667     -99.62156258  1.00D-01  1.01D-01  2.55D-01 1.7D+00      0.2
                    Energy increase :             0.01000468 backtrack

 Wrote rohf: cfock to ./tce_hf_2.7504.cfock

       0.4444     -99.63714819  4.04D-02  4.02D-02  2.69D-01 6.9D-01      0.2

 Wrote rohf: cfock to ./tce_hf_2.7504.cfock

       0.2944     -99.64032777  2.55D-03  2.27D-03  2.52D-01 4.3D-02      0.2

              iter       energy          gnorm     gmax       time
             ----- ------------------- --------- --------- --------
                 4      -99.6403277694  7.49D-01  3.52D-01      0.2

            ----- linear solve (tol: 1.0E-02 prod-acc: 9.0E-09) -----

               iter nbas    rnorm     rnorm-scal   ratio     time
               ---- ---- ----------- ----------- --------- -------
 rohf_wrap: in g_x =    1              0.74924457
 rohf_wrap: out g_x =    1              0.13320953
                  1    1  4.3711E-02  5.8340E-02    0.0000     0.2
 rohf_wrap: in g_x =    1              0.04371082
 rohf_wrap: out g_x =    1              0.01239324
                  2    2  2.4862E-03  3.3183E-03    0.0569     0.2

                              ----- Line search ------

        step       energy         lsg     num-lsg   num-lsh   lsrat    time
      ------- ---------------- --------- --------- --------- ------- --------
       0.0000     -99.64032777 -6.96D-02  0.00D+00  0.00D+00 0.0D+00      0.2

 Wrote rohf: cfock to ./tce_hf_2.7504.cfock

       1.0000     -99.64842029  5.28D-02  5.31D-02  1.22D-01 7.6D-01      0.2

 Wrote rohf: cfock to ./tce_hf_2.7504.cfock

       0.5688     -99.65993399  4.95D-04  5.73D-04  1.21D-01 7.1D-03      0.2

              iter       energy          gnorm     gmax       time
             ----- ------------------- --------- --------- --------
                 5      -99.6599339865  2.28D-01  1.85D-01      0.2

            ----- linear solve (tol: 1.0E-02 prod-acc: 2.7E-09) -----

               iter nbas    rnorm     rnorm-scal   ratio     time
               ---- ---- ----------- ----------- --------- -------
 rohf_wrap: in g_x =    1              0.22818911
 rohf_wrap: out g_x =    1              0.01540310
                  1    1  2.5813E-03  1.1312E-02    0.0000     0.2
 rohf_wrap: in g_x =    1              0.00258134
 rohf_wrap: out g_x =    1              0.00151267
                  2    2  3.6449E-04  1.5973E-03    0.1412     0.2

                              ----- Line search ------

        step       energy         lsg     num-lsg   num-lsh   lsrat    time
      ------- ---------------- --------- --------- --------- ------- --------
       0.0000     -99.65993399 -2.12D-03  0.00D+00  0.00D+00 0.0D+00      0.2

 Wrote rohf: cfock to ./tce_hf_2.7504.cfock

       1.0000     -99.66116663 -3.42D-04 -3.42D-04  1.78D-03 1.6D-01      0.2

              iter       energy          gnorm     gmax       time
             ----- ------------------- --------- --------- --------
                 6      -99.6611666343  2.93D-02  1.92D-02      0.2

            ----- linear solve (tol: 2.9E-02 prod-acc: 1.0E-09) -----

               iter nbas    rnorm     rnorm-scal   ratio     time
               ---- ---- ----------- ----------- --------- -------
 rohf_wrap: in g_x =    1              0.02934854
 rohf_wrap: out g_x =    1              0.00524242
                  1    1  5.6152E-03  1.9133E-01    0.0000     0.2
 rohf_wrap: in g_x =    1              0.00561517
 rohf_wrap: out g_x =    1              0.00377914
                  2    2  2.4683E-03  8.4104E-02    0.4396     0.2
 rohf_wrap: in g_x =    1              0.00246834
 rohf_wrap: out g_x =    1              0.00100782
                  3    3  3.0744E-04  1.0476E-02    0.1246     0.2

                              ----- Line search ------

        step       energy         lsg     num-lsg   num-lsh   lsrat    time
      ------- ---------------- --------- --------- --------- ------- --------
       0.0000     -99.66116663 -1.30D-04  0.00D+00  0.00D+00 0.0D+00      0.2

 Wrote rohf: cfock to ./tce_hf_2.7504.cfock

       1.0000     -99.66123160  2.33D-07  2.36D-07  1.30D-04 1.8D-03      0.2

              iter       energy          gnorm     gmax       time
             ----- ------------------- --------- --------- --------
                 7      -99.6612316006  3.11D-04  1.56D-04      0.2

            ----- linear solve (tol: 3.1E-04 prod-acc: 1.2E-13) -----

               iter nbas    rnorm     rnorm-scal   ratio     time
               ---- ---- ----------- ----------- --------- -------
 rohf_wrap: in g_x =    1              0.00031054
 rohf_wrap: out g_x =    1              0.00013620
                  1    1  2.6338E-04  8.4815E-01    0.0000     0.2
 rohf_wrap: in g_x =    1              0.00026338
 rohf_wrap: out g_x =    1              0.00004508
                  2    2  5.9718E-05  1.9231E-01    0.2267     0.2
 rohf_wrap: in g_x =    1              0.00005972
 rohf_wrap: out g_x =    1              0.00001511
                  3    3  1.1509E-05  3.7062E-02    0.1927     0.2
 rohf_wrap: in g_x =    1              0.00001151
 rohf_wrap: out g_x =    1              0.00000124
                  4    4  1.3593E-06  4.3771E-03    0.1181     0.2
 rohf_wrap: in g_x =    1              0.00000136
 rohf_wrap: out g_x =    1              0.00000021
                  5    5  1.1132E-07  3.5847E-04    0.0819     0.2
 rohf_wrap: in g_x =    1              0.00000011
 rohf_wrap: out g_x =    1              0.00000002
                  6    6  8.2942E-09  2.6709E-05    0.0745     0.2

                              ----- Line search ------

        step       energy         lsg     num-lsg   num-lsh   lsrat    time
      ------- ---------------- --------- --------- --------- ------- --------
       0.0000     -99.66123160 -2.77D-08  0.00D+00  0.00D+00 0.0D+00      0.2

 Wrote rohf: cfock to ./tce_hf_2.7504.cfock

       1.0000     -99.66123161  1.56D-12  1.27D-12  2.77D-08 5.6D-05      0.2

              iter       energy          gnorm     gmax       time
             ----- ------------------- --------- --------- --------
                 8      -99.6612316144  2.33D-08  1.38D-08      0.2

            ----- linear solve (tol: 4.3E-04 prod-acc: 1.2E-17) -----

               iter nbas    rnorm     rnorm-scal   ratio     time
               ---- ---- ----------- ----------- --------- -------
 rohf_wrap: in g_x =    1              0.00000002
 rohf_wrap: out g_x =    1              0.00000001
                  1    1  1.2982E-08  5.5742E-01    0.0000     0.3
 rohf_wrap: in g_x =    1              0.00000001
 rohf_wrap: out g_x =    1              0.00000000
                  2    2  3.7245E-09  1.5992E-01    0.2869     0.3
 rohf_wrap: in g_x =    1              0.00000000
 rohf_wrap: out g_x =    1              0.00000000
                  3    3  6.5543E-10  2.8143E-02    0.1760     0.3
 rohf_wrap: in g_x =    1              0.00000000
 rohf_wrap: out g_x =    1              0.00000000
                  4    4  6.7846E-11  2.9131E-03    0.1035     0.3
 rohf_wrap: in g_x =    1              0.00000000
 rohf_wrap: out g_x =    1              0.00000000
                  5    5  1.3564E-11  5.8242E-04    0.1999     0.3
 rohf_wrap: in g_x =    1              0.00000000
 rohf_wrap: out g_x =    1              0.00000000
                  6    6  8.4502E-13  3.6283E-05    0.0623     0.3

                              ----- Line search ------

        step       energy         lsg     num-lsg   num-lsh   lsrat    time
      ------- ---------------- --------- --------- --------- ------- --------
       0.0000     -99.66123161 -1.46D-16  0.00D+00  0.00D+00 0.0D+00      0.3

 Wrote rohf: cfock to ./tce_hf_2.7504.cfock

       1.0000     -99.66123161  9.22D-22 -5.68D-14  1.46D-16 6.3D-06      0.3

              iter       energy          gnorm     gmax       time
             ----- ------------------- --------- --------- --------
                 9      -99.6612316144  8.52D-13  5.26D-13      0.3

 Wrote molecular orbitals to ./tce_hf_2.7504.movecs



       Final RHF  results 
       ------------------ 

         Total SCF energy =    -99.661231614383
      One-electron energy =   -144.340254994026
      Two-electron energy =     42.947422433964
 Nuclear repulsion energy =      1.731600945680

        Time for solution =      0.2s


             Final eigenvalues
             -----------------

              1      
    1  -26.2490
    2   -1.4409
    3   -0.5621
    4   -0.5621
    5   -0.4086
    6   -0.1702
    7    0.5432
    8    1.3289
    9    1.3376
   10    1.3376
   11    1.5051
   12    1.5051
   13    1.5636
   14    1.8766
   15    4.0581
   16    4.0612
   17    4.0612
   18    4.0725
   19    4.0725

                       ROHF Final Molecular Orbital Analysis
                       -------------------------------------

 Vector    1  Occ=2.000000D+00  E=-2.624900D+01
              MO Center= -3.8D-18,  1.3D-19, -2.8D-01, r^2= 1.2D-02
   Bfn.  Coefficient  Atom+Function         Bfn.  Coefficient  Atom+Function  
  ----- ------------  ---------------      ----- ------------  ---------------
     6      1.000401  2 F  s          

 Vector    2  Occ=2.000000D+00  E=-1.440886D+00
              MO Center=  1.4D-16,  2.8D-18, -2.7D-01, r^2= 3.5D-01
   Bfn.  Coefficient  Atom+Function         Bfn.  Coefficient  Atom+Function  
  ----- ------------  ---------------      ----- ------------  ---------------
     8      0.581034  2 F  s                  7      0.500452  2 F  s          

 Vector    3  Occ=2.000000D+00  E=-5.621074D-01
              MO Center=  9.0D-18, -3.9D-17, -2.7D-01, r^2= 4.3D-01
   Bfn.  Coefficient  Atom+Function         Bfn.  Coefficient  Atom+Function  
  ----- ------------  ---------------      ----- ------------  ---------------
    10      0.649891  2 F  py                13      0.462581  2 F  py         
     9     -0.176697  2 F  px         

 Vector    4  Occ=2.000000D+00  E=-5.621074D-01
              MO Center= -2.3D-17, -6.1D-18, -2.7D-01, r^2= 4.3D-01
   Bfn.  Coefficient  Atom+Function         Bfn.  Coefficient  Atom+Function  
  ----- ------------  ---------------      ----- ------------  ---------------
     9      0.649891  2 F  px                12      0.462581  2 F  px         
    10      0.176697  2 F  py         

 Vector    5  Occ=2.000000D+00  E=-4.086062D-01
              MO Center= -2.6D-17, -2.2D-18,  6.1D-01, r^2= 2.3D+00
   Bfn.  Coefficient  Atom+Function         Bfn.  Coefficient  Atom+Function  
  ----- ------------  ---------------      ----- ------------  ---------------
    11      0.507081  2 F  pz                14      0.422850  2 F  pz         
     2      0.353394  1 H  s                  1      0.252109  1 H  s          

 Vector    6  Occ=0.000000D+00  E=-1.702050D-01
              MO Center=  1.5D-17,  1.3D-18,  1.6D+00, r^2= 2.5D+00
   Bfn.  Coefficient  Atom+Function         Bfn.  Coefficient  Atom+Function  
  ----- ------------  ---------------      ----- ------------  ---------------
     2      0.485829  1 H  s                  1      0.420842  1 H  s          
    11     -0.368844  2 F  pz                14     -0.317818  2 F  pz         

 Vector    7  Occ=0.000000D+00  E= 5.431706D-01
              MO Center=  4.4D-18, -2.0D-17,  2.5D+00, r^2= 1.8D+00
   Bfn.  Coefficient  Atom+Function         Bfn.  Coefficient  Atom+Function  
  ----- ------------  ---------------      ----- ------------  ---------------
     1      1.281541  1 H  s                  2     -1.238004  1 H  s          

 Vector    8  Occ=0.000000D+00  E= 1.328942D+00
              MO Center=  1.1D-16,  1.7D-17,  2.3D+00, r^2= 8.5D-01
   Bfn.  Coefficient  Atom+Function         Bfn.  Coefficient  Atom+Function  
  ----- ------------  ---------------      ----- ------------  ---------------
     5      0.969443  1 H  pz                11      0.232421  2 F  pz         
    14     -0.219917  2 F  pz         

 Vector    9  Occ=0.000000D+00  E= 1.337619D+00
              MO Center= -3.2D-17,  6.0D-17,  2.5D+00, r^2= 4.9D-01
   Bfn.  Coefficient  Atom+Function         Bfn.  Coefficient  Atom+Function  
  ----- ------------  ---------------      ----- ------------  ---------------
     4      0.882007  1 H  py                 3     -0.469907  1 H  px         

 Vector   10  Occ=0.000000D+00  E= 1.337619D+00
              MO Center= -5.1D-17, -2.7D-17,  2.5D+00, r^2= 4.9D-01
   Bfn.  Coefficient  Atom+Function         Bfn.  Coefficient  Atom+Function  
  ----- ------------  ---------------      ----- ------------  ---------------
     3      0.882007  1 H  px                 4      0.469907  1 H  py         

 Vector   11  Occ=0.000000D+00  E= 1.505126D+00
              MO Center=  2.6D-17, -2.5D-16, -2.7D-01, r^2= 9.0D-01
   Bfn.  Coefficient  Atom+Function         Bfn.  Coefficient  Atom+Function  
  ----- ------------  ---------------      ----- ------------  ---------------
    13      1.036352  2 F  py                10     -0.923442  2 F  py         

 Vector   12  Occ=0.000000D+00  E= 1.505126D+00
              MO Center=  3.1D-16,  3.2D-17, -2.7D-01, r^2= 9.0D-01
   Bfn.  Coefficient  Atom+Function         Bfn.  Coefficient  Atom+Function  
  ----- ------------  ---------------      ----- ------------  ---------------
    12      1.036352  2 F  px                 9     -0.923442  2 F  px         

 Vector   13  Occ=0.000000D+00  E= 1.563552D+00
              MO Center= -1.6D-16,  1.2D-16, -1.6D-01, r^2= 1.3D+00
   Bfn.  Coefficient  Atom+Function         Bfn.  Coefficient  Atom+Function  
  ----- ------------  ---------------      ----- ------------  ---------------
    14     -1.008461  2 F  pz                11      0.930567  2 F  pz         
     5     -0.241045  1 H  pz                 2      0.182936  1 H  s          

 Vector   14  Occ=0.000000D+00  E= 1.876575D+00
              MO Center= -1.8D-16,  1.0D-16, -2.1D-01, r^2= 8.1D-01
   Bfn.  Coefficient  Atom+Function         Bfn.  Coefficient  Atom+Function  
  ----- ------------  ---------------      ----- ------------  ---------------
     7      1.556231  2 F  s                  8     -1.529122  2 F  s          
     6      0.628000  2 F  s          

 Vector   15  Occ=0.000000D+00  E= 4.058124D+00
              MO Center=  4.3D-19, -4.6D-18, -2.8D-01, r^2= 3.0D-01
   Bfn.  Coefficient  Atom+Function         Bfn.  Coefficient  Atom+Function  
  ----- ------------  ---------------      ----- ------------  ---------------
    17      1.000051  2 F  d  0       

 Vector   16  Occ=0.000000D+00  E= 4.061201D+00
              MO Center= -1.3D-16,  7.1D-17, -2.8D-01, r^2= 3.0D-01
   Bfn.  Coefficient  Atom+Function         Bfn.  Coefficient  Atom+Function  
  ----- ------------  ---------------      ----- ------------  ---------------
    16      0.837209  2 F  d -1              18      0.546881  2 F  d  1       

 Vector   17  Occ=0.000000D+00  E= 4.061201D+00
              MO Center= -1.1D-16,  5.6D-17, -2.8D-01, r^2= 3.0D-01
   Bfn.  Coefficient  Atom+Function         Bfn.  Coefficient  Atom+Function  
  ----- ------------  ---------------      ----- ------------  ---------------
    18      0.837209  2 F  d  1              16     -0.546881  2 F  d -1       

 Vector   18  Occ=0.000000D+00  E= 4.072480D+00
              MO Center=  1.1D-16, -5.9D-17, -2.8D-01, r^2= 3.0D-01
   Bfn.  Coefficient  Atom+Function         Bfn.  Coefficient  Atom+Function  
  ----- ------------  ---------------      ----- ------------  ---------------
    19      0.999397  2 F  d  2       

 Vector   19  Occ=0.000000D+00  E= 4.072480D+00
              MO Center=  1.4D-16, -6.9D-17, -2.8D-01, r^2= 3.0D-01
   Bfn.  Coefficient  Atom+Function         Bfn.  Coefficient  Atom+Function  
  ----- ------------  ---------------      ----- ------------  ---------------
    15      0.999397  2 F  d -2       


 center of mass
 --------------
 x =   0.00000000 y =   0.00000000 z =  -0.25792309

 moments of inertia (a.u.)
 ------------------
          25.853919718617           0.000000000000           0.000000000000
           0.000000000000          25.853919718617           0.000000000000
           0.000000000000           0.000000000000           0.000000000000

  Mulliken analysis of the total density
  --------------------------------------

   Bfn.    Population  Atom+Function
   ---------------------------------
     1      0.252367    1 H  s          
     2      0.412515    1 H  s          
     3      0.000003    1 H  px         
     4      0.000003    1 H  py         
     5      0.000358    1 H  pz         
     6      2.000775    2 F  s          
     7      0.913640    2 F  s          
     8      1.084690    2 F  s          
     9      1.223777    2 F  px         
    10      1.223777    2 F  py         
    11      0.730327    2 F  pz         
    12      0.776216    2 F  px         
    13      0.776216    2 F  py         
    14      0.605288    2 F  pz         
    15      0.000000    2 F  d -2       
    16      0.000003    2 F  d -1       
    17      0.000041    2 F  d  0       
    18      0.000003    2 F  d  1       
    19      0.000000    2 F  d  2       

    Atom       Charge   Shell Charges
 -----------   ------   -------------------------------------------------------
    1 H    1     0.67   0.25  0.41  0.00
    2 F    9     9.33   2.00  0.91  1.08  3.18  2.16  0.00

       Multipole analysis of the density wrt the origin
       ------------------------------------------------

     L   x y z        total         open         nuclear
     -   - - -        -----         ----         -------
     0   0 0 0     -0.000000      0.000000     10.000000

     1   1 0 0     -0.000000      0.000000      0.000000
     1   0 1 0      0.000000      0.000000      0.000000
     1   0 0 1      1.833773      0.000000      0.000000

     2   2 0 0     -4.612233      0.000000      0.000000
     2   1 1 0      0.000000      0.000000      0.000000
     2   1 0 1     -0.000000      0.000000      0.000000
     2   0 2 0     -4.612233      0.000000      0.000000
     2   0 1 1     -0.000000      0.000000      0.000000
     2   0 0 2      3.875067      0.000000     24.312628


 Wrote molecular orbitals to ./tce_hf_2.7504.movecs


 Parallel integral file used       1 records with       0 large values


 Read molecular orbitals from ./tce_hf_2.7504.movecs


 Schwarz integral screening summary 
 ---------------------------------- 

        No. of atom pairs =       3
       No. of shell pairs =      45

 Atomic screening 

   value      no.     value      no.     value      no.     value      no.   
  -------- ------    -------- ------    -------- ------    -------- ------   
  0.00D+00      0    1.00D-13      0    1.00D-12      0    1.00D-11      0
  1.00D-10      0    1.00D-09      0    1.00D-08      0    1.00D-07      0
  1.00D-06      0    1.00D-05      0    1.00D-04      0    1.00D-03      0
  1.00D-02      0    1.00D-01      1    1.00D+00      2    1.00D+01      0


 Shell screening 

   value      no.     value      no.     value      no.     value      no.   
  -------- ------    -------- ------    -------- ------    -------- ------   
  0.00D+00      0    1.00D-13      0    1.00D-12      0    1.00D-11      0
  1.00D-10      0    1.00D-09      0    1.00D-08      0    1.00D-07      1
  1.00D-06      0    1.00D-05      2    1.00D-04      5    1.00D-03      2
  1.00D-02      6    1.00D-01      5    1.00D+00     24    1.00D+01      0


                   NWChem Extensible Many-Electron Theory Module
                   ---------------------------------------------

              ======================================================
                   This portion of the program was automatically
                  generated by a Tensor Contraction Engine (TCE).
                  The development of this portion of the program
                 and TCE was supported by US Department of Energy,
                Office of Science, Office of Basic Energy Science.
                      TCE is a product of Battelle and PNNL.
              Please cite: S.Hirata, J.Phys.Chem.A 107, 9887 (2003).
              ======================================================

            General Information
            -------------------
      Number of processors :     1
         Wavefunction type : Restricted Hartree-Fock
          No. of electrons :    10
           Alpha electrons :     5
            Beta electrons :     5
           No. of orbitals :    38
            Alpha orbitals :    19
             Beta orbitals :    19
        Alpha frozen cores :     0
         Beta frozen cores :     0
     Alpha frozen virtuals :     0
      Beta frozen virtuals :     0
         Spin multiplicity : singlet 
    Number of AO functions :    19
       Number of AO shells :     9
        Use of symmetry is : off
      Symmetry adaption is : off
         Schwarz screening : 0.10D-09

          Correlation Information
          -----------------------
          Calculation type : Coupled-cluster singles & doubles                           
   Perturbative correction : none                                                        
            Max iterations :      100
        Residual threshold : 0.10D-07
     T(0) DIIS level shift : 0.00D+00
     L(0) DIIS level shift : 0.00D+00
     T(1) DIIS level shift : 0.00D+00
     L(1) DIIS level shift : 0.00D+00
     T(R) DIIS level shift : 0.00D+00
     T(I) DIIS level shift : 0.00D+00
   CC-T/L Amplitude update :  5-th order DIIS
                I/O scheme : Global Array Library
        L-threshold :  0.10D-07
        EOM-threshold :  0.10D-07
 no EOMCCSD initial starts read in
 TCE RESTART OPTIONS
 READ_INT:   F
 WRITE_INT:  F
 READ_TA:    F
 WRITE_TA:   F
 READ_XA:    F
 WRITE_XA:   F
 READ_IN3:   F
 WRITE_IN3:  F
 SLICE:      F
 D4D5:       F
 quantumc:   F
 qrotation:  F
 qducc:      T
 nacto:                         0
 nrotv:                         0
 nrot:                          0

            Memory Information
            ------------------
          Available GA space size is     402652823 doubles
          Available MA space size is     402651564 doubles

 Maximum block size        32 doubles

 tile_dim =     14

 Block   Spin    Irrep     Size     Offset   Alpha
 -------------------------------------------------
   1    alpha     a      5 doubles       0       1
   2    beta      a      5 doubles       5       1
   3    alpha     a     14 doubles      10       3
   4    beta      a     14 doubles      24       3

 Global array virtual files algorithm will be used

 Parallel file system coherency ......... OK

 Setting fock-build task_bf   :      -1
                    maxquartet:   10000
                    maxeri    :  129600
                    maxscr    :       0
                    intacc    : 0.0D+00
                    denscreen : T
                    dentol    : 1.0D-06

   0: nuse=   1(   0.9) avail=   434975Mb (out of   434975Mb) on .

 #quartets = 1.027D+03 #integrals = 4.686D+03 #direct =  0.0% #cached =100.0%


 Integral file          = ./tce_hf_2.7504.aoints.0
 Record size in doubles =  65536        No. of integs per rec  =  43688
 Max. records in memory =      2        Max. records in file   = 826451
 No. of bits per label  =      8        No. of bits per value  =     64


 Fock matrix recomputed
 1-e file size   =              361
 1-e file name   = ./tce_hf_2.7504.f1
 Cpu & wall time / sec            0.1            0.1
 4-electron integrals stored in orbital form

 v2    file size   =            64311
 4-index algorithm nr.  13 is used
 imaxsize =       30
 imaxsize ichop =        0
 Cpu & wall time / sec            0.1            0.1
 T1-number-of-tasks                    1

 t1 file size   =               70
 t1 file name   = ./tce_hf_2.7504.t1
 t1 file handle =       -998
 T2-number-of-boxes                    2

 t2 file size   =             9800
 t2 file name   = ./tce_hf_2.7504.t2
 t2 file handle =       -996

 CCSD iterations
 -----------------------------------------------------------------
 Iter          Residuum       Correlation     Cpu    Wall    V2*C2
 -----------------------------------------------------------------
    1   0.3084863853856  -0.2913028289534     0.0     0.0     0.0
    2   0.2875863864130  -0.3414314934056     0.0     0.0     0.0
    3   0.4641618245960  -0.2234509924128     0.0     0.0     0.0
    4   0.7502116070054  -0.3669218866396     0.0     0.0     0.0
    5   1.0012469499640   0.0441992191182     0.0     0.0     0.0
 MICROCYCLE DIIS UPDATE:                    5                    5
    6   0.0459889463717  -0.3276534700480     0.0     0.0     0.0
    7   0.0277941626431  -0.3445912397054     0.0     0.0     0.0
    8   0.0140455684308  -0.3425106538000     0.0     0.0     0.0
    9   0.0113977968718  -0.3487297359979     0.0     0.0     0.0
   10   0.0199993089860  -0.3436436805343     0.0     0.0     0.0
 MICROCYCLE DIIS UPDATE:                   10                    5
   11   0.0008928458561  -0.3477358918968     0.0     0.0     0.0
   12   0.0004455932740  -0.3477877758015     0.0     0.0     0.0
   13   0.0003331236271  -0.3477281692564     0.0     0.0     0.0
   14   0.0003416894580  -0.3478036124231     0.0     0.0     0.0
   15   0.0005265608242  -0.3476744561237     0.0     0.0     0.0
 MICROCYCLE DIIS UPDATE:                   15                    5
   16   0.0000116154126  -0.3477551172930     0.0     0.0     0.0
   17   0.0000050406779  -0.3477564902239     0.0     0.0     0.0
   18   0.0000019049005  -0.3477563742370     0.0     0.0     0.0
   19   0.0000013750951  -0.3477565228001     0.0     0.0     0.0
   20   0.0000008625933  -0.3477566291997     0.0     0.0     0.0
 MICROCYCLE DIIS UPDATE:                   20                    5
   21   0.0000001873673  -0.3477566013511     0.0     0.0     0.0
   22   0.0000002611892  -0.3477565602556     0.0     0.0     0.0
   23   0.0000004139893  -0.3477566715271     0.0     0.0     0.0
   24   0.0000007573844  -0.3477564819512     0.0     0.0     0.0
   25   0.0000013451636  -0.3477568286168     0.0     0.0     0.0
 MICROCYCLE DIIS UPDATE:                   25                    5
   26   0.0000000033208  -0.3477566079407     0.0     0.0     0.0
 -----------------------------------------------------------------
 Iterations converged
 CCSD correlation energy / hartree =        -0.347756607940743
 CCSD total energy / hartree       =      -100.008988222323666

 Singles contributions
     6a   (alpha) ---     5a   (alpha)        0.2678458230

 Doubles contributions
     6a   (alpha)     6a   (beta ) ---     5a   (alpha)     5a   (beta )       -0.8048516732
 Ground state specification:
 exp(T)|Ref>~(1+T)|Ref>
 ------- a(p)+/a(q) strings ----------

 singles norm

 doubles norm

 Reference string
  0.74717029378259869      :(1a)+ (2a)+ (3a)+ (4a)+ (5a)+ (1b)+ (2b)+ (3b)+ (4b)+ (5b)+ |0>

 Singles strings
  0.20012644222521137      :(6a)+ (5a)  (1a)+ (2a)+ (3a)+ (4a)+ (5a)+ (1b)+ (2b)+ (3b)+ (4b)+ (5b)+ |0>
  0.20012644222521137      :(6b)+ (5b)  (1a)+ (2a)+ (3a)+ (4a)+ (5a)+ (1b)+ (2b)+ (3b)+ (4b)+ (5b)+ |0>

 Doubles strings
 -0.60136126108470223      :(6a)+ (6b)+ (5b)  (5a)  (1a)+ (2a)+ (3a)+ (4a)+ (5a)+ (1b)+ (2b)+ (3b)+ (4b)+ (5b)+ |0>
 -------------------------------------
 enrep_tce =    1.7316009456796408     
  EHF(total)         =       -99.66123161
  Shift (HFtot-HFA)  =         0.00000000
 ALL OCCUPIED ORBITALS ARE ACTIVE IN DUCC --> NO SHIFT
 Number of active orbitals                   10
 Number of active alpha electrons                    5
 Number of active beta electrons                    5
  nos                    10
  nvs                    28
 noas                     5
 nobs                     5
 nvas                    14
 nvbs                    14
 nactv                     5
 From DUCC CCSD corr. ene. -0.34775660794069818     
 From DUCC CCSD corr. ene.-e-part  0.18077321255592682     
 begin_one_electron_integrals
    1    1       -40.6097309729
    1    2         0.7608352936
    1    5        -0.0155774393
    1    6        -0.0182908505
    1    7         0.0416806754
    1    8         0.0219966057
    2    1         0.7608352936
    2    2        -9.1344196888
    2    5         0.0859203164
    2    6         0.1332254826
    2    7        -0.1668325540
    2    8        -0.0760403394
    3    3        -8.2583265363
    3    9         0.0798740229
    3   10         0.0182012036
    4    4        -8.2583265363
    4    9        -0.0182012036
    4   10         0.0798740229
    5    1        -0.0155774393
    5    2         0.0859203164
    5    5        -6.2370102614
    5    6         2.5653963506
    5    7        -0.3570729031
    5    8        -0.4390031197
    6    1        -0.0182908505
    6    2         0.1332254826
    6    5         2.5653963506
    6    6        -4.1231650817
    6    7         0.1883803284
    6    8         0.6363557187
    7    1         0.0416806754
    7    2        -0.1668325540
    7    5        -0.3570729031
    7    6         0.1883803284
    7    7        -1.5814158836
    7    8        -0.1163853348
    8    1         0.0219966057
    8    2        -0.0760403394
    8    5        -0.4390031197
    8    6         0.6363557187
    8    7        -0.1163853348
    8    8        -1.1833652482
    9    3         0.0798740229
    9    4        -0.0182012036
    9    9        -0.8054312790
   10    3         0.0182012036
   10    4         0.0798740229
   10   10        -0.8054312790
 end_one_electron_integrals
 begin_two_electron_integrals
    1    1    1    1        5.3568308463
    2    1    1    1       -0.5454433400
    2    2    1    1        1.2941501981
    2    1    2    1        0.0879649182
    2    2    2    1       -0.0253374880
    2    2    2    2        0.9017362256
    3    3    1    1        1.2470550854
    3    3    2    1       -0.0170186445
    3    3    2    2        0.8737697897
    3    1    3    1        0.0379596529
    3    2    3    1        0.0410939916
    3    2    3    2        0.1702069587
    3    3    3    3        0.9005103376
    4    4    1    1        1.2470550854
    4    4    2    1       -0.0170186445
    4    4    2    2        0.8737697897
    4    4    3    3        0.8170136604
    4    1    4    1        0.0379596529
    4    2    4    1        0.0410939916
    4    2    4    2        0.1702069587
    4    3    4    3        0.0395087572
    4    4    4    4        0.9005103376
    5    1    1    1        0.0122120352
    5    2    1    1       -0.0197442624
    5    5    1    1        0.8864676156
    5    1    2    1       -0.0020388953
    5    1    2    2        0.0005706094
    5    2    2    1        0.0006118240
    5    2    2    2       -0.0109583315
    5    5    2    1       -0.0107625705
    5    5    2    2        0.6443988729
    5    1    3    3        0.0003625500
    5    2    3    3       -0.0107649919
    5    3    3    1       -0.0008535925
    5    3    3    2       -0.0029670763
    5    5    3    3        0.6038187712
    5    1    4    4        0.0003625500
    5    2    4    4       -0.0107649919
    5    4    4    1       -0.0008535925
    5    4    4    2       -0.0029670763
    5    5    4    4        0.6038187712
    5    1    5    1        0.0245238302
    5    2    5    1        0.0263011965
    5    2    5    2        0.1115863364
    5    3    5    3        0.0254667898
    5    4    5    4        0.0254667898
    5    5    5    1        0.0000156058
    5    5    5    2       -0.0018074923
    5    5    5    5        0.5409501954
    6    1    1    1        0.0140477582
    6    2    1    1       -0.0222779439
    6    5    1    1       -0.4315404826
    6    6    1    1        0.5223293215
    6    1    2    1       -0.0023273958
    6    1    2    2        0.0005516472
    6    2    2    1        0.0005564089
    6    2    2    2       -0.0135317834
    6    5    2    1        0.0040395282
    6    5    2    2       -0.2999008659
    6    6    2    1       -0.0050001877
    6    6    2    2        0.4117568010
    6    1    3    3        0.0003460295
    6    2    3    3       -0.0130870459
    6    3    3    1       -0.0009977427
    6    3    3    2       -0.0035976581
    6    5    3    3       -0.2753008732
    6    6    3    3        0.3942433036
    6    1    4    4        0.0003460295
    6    2    4    4       -0.0130870459
    6    4    4    1       -0.0009977427
    6    4    4    2       -0.0035976581
    6    5    4    4       -0.2753008732
    6    6    4    4        0.3942433036
    6    1    5    1       -0.0172741126
    6    1    5    2       -0.0190426265
    6    1    5    5        0.0005373365
    6    2    5    1       -0.0177882508
    6    2    5    2       -0.0795479760
    6    2    5    5       -0.0084288778
    6    3    5    3       -0.0219087706
    6    4    5    4       -0.0219087706
    6    5    5    1        0.0004454226
    6    5    5    2        0.0138183861
    6    5    5    5       -0.1587444927
    6    6    5    1        0.0018339555
    6    6    5    2        0.0123896608
    6    6    5    5        0.4299817907
    6    1    6    1        0.0126629523
    6    2    6    1        0.0132793514
    6    2    6    2        0.0596681096
    6    3    6    3        0.0197576956
    6    4    6    4        0.0197576956
    6    5    6    1       -0.0003301446
    6    5    6    2        0.0027729967
    6    5    6    5        0.2334751548
    6    6    6    1       -0.0010524252
    6    6    6    2       -0.0094469300
    6    6    6    5        0.0119355941
    6    6    6    6        0.4476040073
    7    1    1    1       -0.0320086537
    7    2    1    1        0.0358843877
    7    5    1    1        0.0613585651
    7    6    1    1       -0.0462627532
    7    7    1    1        0.2011799278
    7    1    2    1        0.0053922024
    7    1    2    2       -0.0012890082
    7    2    2    1       -0.0011464071
    7    2    2    2        0.0186766772
    7    5    2    1       -0.0011425803
    7    5    2    2        0.0355749250
    7    6    2    1        0.0009702302
    7    6    2    2       -0.0254725396
    7    7    2    1       -0.0002757557
    7    7    2    2        0.1962284451
    7    1    3    3       -0.0007752971
    7    2    3    3        0.0186374052
    7    3    3    1        0.0019227131
    7    3    3    2        0.0055742522
    7    5    3    3        0.0329420299
    7    6    3    3       -0.0236479088
    7    7    3    3        0.1938168766
    7    1    4    4       -0.0007752971
    7    2    4    4        0.0186374052
    7    4    4    1        0.0019227131
    7    4    4    2        0.0055742522
    7    5    4    4        0.0329420299
    7    6    4    4       -0.0236479088
    7    7    4    4        0.1938168766
    7    1    5    1        0.0033180303
    7    1    5    2        0.0035506043
    7    1    5    5       -0.0006115018
    7    2    5    1        0.0028762292
    7    2    5    2        0.0091036455
    7    2    5    5        0.0104432391
    7    3    5    3        0.0021213695
    7    4    5    4        0.0021213695
    7    5    5    1        0.0007809691
    7    5    5    2       -0.0000736356
    7    5    5    5        0.0459554962
    7    6    5    1       -0.0006276851
    7    6    5    2        0.0017778739
    7    6    5    5        0.0256429290
    7    7    5    1        0.0018376038
    7    7    5    2        0.0203398289
    7    7    5    5        0.2992563215
    7    1    6    1       -0.0026202516
    7    1    6    2       -0.0024327317
    7    1    6    5        0.0001896710
    7    1    6    6       -0.0000211863
    7    2    6    1       -0.0021185988
    7    2    6    2       -0.0086355364
    7    2    6    5       -0.0077781221
    7    2    6    6        0.0063400023
    7    3    6    3       -0.0029073750
    7    4    6    4       -0.0029073750
    7    5    6    1       -0.0006831870
    7    5    6    2       -0.0012448635
    7    5    6    5        0.0186005197
    7    5    6    6        0.0722352208
    7    6    6    1        0.0003855076
    7    6    6    2        0.0020660002
    7    6    6    5        0.0788435526
    7    6    6    6        0.0937242414
    7    7    6    1       -0.0011859455
    7    7    6    2       -0.0073607712
    7    7    6    5        0.1479995318
    7    7    6    6        0.4217231467
    7    1    7    1        0.0007988809
    7    2    7    1        0.0003146579
    7    2    7    2        0.0020486210
    7    3    7    3        0.0008294345
    7    4    7    4        0.0008294345
    7    5    7    1        0.0000328807
    7    5    7    2        0.0021223235
    7    5    7    5        0.0379899232
    7    6    7    1       -0.0000261439
    7    6    7    2       -0.0002075208
    7    6    7    5        0.0566130400
    7    6    7    6        0.0951383223
    7    7    7    1        0.0002079533
    7    7    7    2        0.0010698009
    7    7    7    5        0.0827451718
    7    7    7    6        0.1437032873
    7    7    7    7        0.5068864628
    8    1    1    1       -0.0171480632
    8    2    1    1        0.0176042560
    8    5    1    1        0.1058030805
    8    6    1    1       -0.1138345754
    8    7    1    1        0.0222380251
    8    8    1    1        0.2536756088
    8    1    2    1        0.0028733063
    8    1    2    2       -0.0006755601
    8    2    2    1       -0.0006749844
    8    2    2    2        0.0077765920
    8    5    2    1       -0.0031021912
    8    5    2    2        0.0418432422
    8    6    2    1        0.0025933124
    8    6    2    2       -0.0641650958
    8    7    2    1       -0.0005603445
    8    7    2    2        0.0120822678
    8    8    2    1       -0.0014042643
    8    8    2    2        0.2292870273
    8    1    3    3       -0.0004412619
    8    2    3    3        0.0074145123
    8    3    3    1        0.0008724419
    8    3    3    2        0.0017685531
    8    5    3    3        0.0381974288
    8    6    3    3       -0.0605690014
    8    7    3    3        0.0113657538
    8    8    3    3        0.2248690854
    8    1    4    4       -0.0004412619
    8    2    4    4        0.0074145123
    8    4    4    1        0.0008724419
    8    4    4    2        0.0017685531
    8    5    4    4        0.0381974288
    8    6    4    4       -0.0605690014
    8    7    4    4        0.0113657538
    8    8    4    4        0.2248690854
    8    1    5    1        0.0091710430
    8    1    5    2        0.0089972340
    8    1    5    5       -0.0004334053
    8    2    5    1        0.0054161335
    8    2    5    2        0.0129248459
    8    2    5    5        0.0028351605
    8    3    5    3        0.0031629965
    8    4    5    4        0.0031629965
    8    5    5    1        0.0001572990
    8    5    5    2       -0.0042052006
    8    5    5    5        0.0149739238
    8    6    5    1       -0.0009283067
    8    6    5    2       -0.0042328350
    8    6    5    5       -0.0471873522
    8    7    5    1        0.0004815262
    8    7    5    2        0.0013767831
    8    7    5    5        0.0048204993
    8    8    5    1        0.0021322889
    8    8    5    2        0.0230175655
    8    8    5    5        0.3518281388
    8    1    6    1       -0.0068220091
    8    1    6    2       -0.0062235018
    8    1    6    5        0.0002511929
    8    1    6    6        0.0004380147
    8    2    6    1       -0.0042145777
    8    2    6    2       -0.0136502204
    8    2    6    5       -0.0044030997
    8    2    6    6        0.0013128074
    8    3    6    3       -0.0050257961
    8    4    6    4       -0.0050257961
    8    5    6    1       -0.0000622093
    8    5    6    2        0.0000700280
    8    5    6    5       -0.0330287877
    8    5    6    6        0.0130385054
    8    6    6    1        0.0005225318
    8    6    6    2        0.0041958972
    8    6    6    5        0.0351839297
    8    6    6    6       -0.0140006635
    8    7    6    1       -0.0002988715
    8    7    6    2       -0.0015774231
    8    7    6    5       -0.0084939961
    8    7    6    6        0.0010267031
    8    8    6    1       -0.0013372711
    8    8    6    2       -0.0081862871
    8    8    6    5        0.1729001505
    8    8    6    6        0.4936541438
    8    1    7    1        0.0014510707
    8    1    7    2        0.0009296370
    8    1    7    5        0.0002576117
    8    1    7    6       -0.0001781956
    8    1    7    7        0.0005703619
    8    2    7    1        0.0006873072
    8    2    7    2        0.0020196841
    8    2    7    5        0.0011467313
    8    2    7    6       -0.0017911872
    8    2    7    7       -0.0020832031
    8    3    7    3        0.0006568657
    8    4    7    4        0.0006568657
    8    5    7    1       -0.0001611838
    8    5    7    2        0.0026179883
    8    5    7    5       -0.0030891287
    8    5    7    6       -0.0082571016
    8    5    7    7       -0.0109394081
    8    6    7    1        0.0000255927
    8    6    7    2       -0.0021004146
    8    6    7    5       -0.0032967861
    8    6    7    6        0.0030626742
    8    6    7    7        0.0033293376
    8    7    7    1        0.0000302408
    8    7    7    2        0.0003312907
    8    7    7    5       -0.0021025390
    8    7    7    6       -0.0032849306
    8    7    7    7       -0.0061357241
    8    8    7    1        0.0001829350
    8    8    7    2        0.0017360237
    8    8    7    5        0.0946989274
    8    8    7    6        0.1611843734
    8    8    7    7        0.5386322930
    8    1    8    1        0.0036644889
    8    2    8    1        0.0019852400
    8    2    8    2        0.0047570036
    8    3    8    3        0.0018456338
    8    4    8    4        0.0018456338
    8    5    8    1       -0.0000370415
    8    5    8    2        0.0027479937
    8    5    8    5        0.0432631709
    8    6    8    1       -0.0002088553
    8    6    8    2        0.0002223191
    8    6    8    5        0.0471367074
    8    6    8    6        0.0852478338
    8    7    8    1        0.0001404961
    8    7    8    2        0.0010483139
    8    7    8    5        0.0307706916
    8    7    8    6        0.0438290757
    8    7    8    7        0.0379980978
    8    8    8    1        0.0006256648
    8    8    8    2       -0.0026103145
    8    8    8    5       -0.0163241185
    8    8    8    6        0.0012243735
    8    8    8    7       -0.0075561187
    8    8    8    8        0.7258634717
    9    3    1    1       -0.0179717494
    9    4    1    1        0.0040952923
    9    9    1    1        0.1910541038
    9    3    2    1        0.0004612080
    9    3    2    2       -0.0081308837
    9    4    2    1       -0.0001050973
    9    4    2    2        0.0018528160
    9    9    2    1       -0.0000245214
    9    9    2    2        0.1907703566
    9    1    3    1       -0.0016024173
    9    1    3    2       -0.0015371641
    9    2    3    1       -0.0008890588
    9    2    3    2       -0.0020866359
    9    3    3    3       -0.0088028554
    9    4    3    3        0.0017141420
    9    5    3    1        0.0001859299
    9    5    3    2        0.0015449191
    9    6    3    1        0.0002282417
    9    6    3    2        0.0023079168
    9    7    3    1       -0.0000419884
    9    7    3    2        0.0000145363
    9    8    3    1       -0.0001077630
    9    8    3    2       -0.0009225790
    9    9    3    3        0.1887383441
    9    1    4    1        0.0003651491
    9    1    4    2        0.0003502796
    9    2    4    1        0.0002025933
    9    2    4    2        0.0004754898
    9    3    4    3        0.0001412800
    9    3    4    4       -0.0075223277
    9    4    4    3       -0.0006605355
    9    4    4    4        0.0020059408
    9    5    4    1       -0.0000423686
    9    5    4    2       -0.0003520467
    9    6    4    1       -0.0000520103
    9    6    4    2       -0.0005259140
    9    7    4    1        0.0000095681
    9    7    4    2       -0.0000033124
    9    8    4    1        0.0000245564
    9    8    4    2        0.0002102317
    9    9    4    3       -0.0000528761
    9    9    4    4        0.1885183520
    9    1    5    3        0.0000313380
    9    1    5    4       -0.0000071411
    9    2    5    3        0.0001050265
    9    2    5    4       -0.0000239328
    9    3    5    1       -0.0000041787
    9    3    5    2        0.0002670452
    9    3    5    5       -0.0043625950
    9    4    5    1        0.0000009522
    9    4    5    2       -0.0000608526
    9    4    5    5        0.0009941214
    9    5    5    3        0.0002714360
    9    5    5    4       -0.0000618532
    9    6    5    3        0.0009823735
    9    6    5    4       -0.0002238573
    9    7    5    3        0.0000515201
    9    7    5    4       -0.0000117401
    9    8    5    3       -0.0005314673
    9    8    5    4        0.0001211075
    9    9    5    1        0.0015811721
    9    9    5    2        0.0209197287
    9    9    5    5        0.3308345402
    9    1    6    3        0.0000398311
    9    1    6    4       -0.0000090765
    9    2    6    3        0.0000446175
    9    2    6    4       -0.0000101672
    9    3    6    1       -0.0000144852
    9    3    6    2        0.0001460144
    9    3    6    5        0.0038053397
    9    3    6    6       -0.0020517070
    9    4    6    1        0.0000033008
    9    4    6    2       -0.0000332729
    9    4    6    5       -0.0008671375
    9    4    6    6        0.0004675304
    9    5    6    3        0.0006335444
    9    5    6    4       -0.0001443682
    9    6    6    3       -0.0005059200
    9    6    6    4        0.0001152860
    9    7    6    3        0.0000853568
    9    7    6    4       -0.0000194506
    9    8    6    3        0.0003046842
    9    8    6    4       -0.0000694296
    9    9    6    1       -0.0010187062
    9    9    6    2       -0.0056391427
    9    9    6    5        0.2019688365
    9    9    6    6        0.4975497688
    9    1    7    3       -0.0000788570
    9    1    7    4        0.0000179695
    9    2    7    3       -0.0002448537
    9    2    7    4        0.0000557958
    9    3    7    1        0.0000222601
    9    3    7    2       -0.0004808295
    9    3    7    5       -0.0003047244
    9    3    7    6        0.0006950094
    9    3    7    7        0.0005251926
    9    4    7    1       -0.0000050725
    9    4    7    2        0.0001095685
    9    4    7    5        0.0000694387
    9    4    7    6       -0.0001583745
    9    4    7    7       -0.0001196777
    9    5    7    3       -0.0001762001
    9    5    7    4        0.0000401514
    9    6    7    3       -0.0001480539
    9    6    7    4        0.0000337376
    9    7    7    3        0.0000099591
    9    7    7    4       -0.0000022694
    9    8    7    3        0.0001111966
    9    8    7    4       -0.0000253388
    9    9    7    1        0.0001874578
    9    9    7    2        0.0009994138
    9    9    7    5        0.0988587792
    9    9    7    6        0.1714255438
    9    9    7    7        0.5577100767
    9    1    8    3       -0.0000378954
    9    1    8    4        0.0000086354
    9    2    8    3       -0.0001162614
    9    2    8    4        0.0000264929
    9    3    8    1        0.0000142864
    9    3    8    2       -0.0002188296
    9    3    8    5       -0.0011808225
    9    3    8    6        0.0008580916
    9    3    8    7       -0.0001572029
    9    3    8    8        0.0004163224
    9    4    8    1       -0.0000032555
    9    4    8    2        0.0000498655
    9    4    8    5        0.0002690786
    9    4    8    6       -0.0001955367
    9    4    8    7        0.0000358224
    9    4    8    8       -0.0000948690
    9    5    8    3       -0.0004342017
    9    5    8    4        0.0000989432
    9    6    8    3       -0.0000236612
    9    6    8    4        0.0000053918
    9    7    8    3       -0.0000393739
    9    7    8    4        0.0000089723
    9    8    8    3        0.0001370841
    9    8    8    4       -0.0000312379
    9    9    8    1        0.0004924180
    9    9    8    2       -0.0027980319
    9    9    8    5       -0.0151550461
    9    9    8    6        0.0055051168
    9    9    8    7       -0.0074469530
    9    9    8    8        0.6619738193
    9    1    9    1        0.0000715698
    9    2    9    1        0.0000399524
    9    2    9    2        0.0001501206
    9    3    9    3        0.0003417186
    9    4    9    3       -0.0000635436
    9    4    9    4        0.0000773441
    9    5    9    1       -0.0000050328
    9    5    9    2        0.0009002735
    9    5    9    5        0.0371148514
    9    6    9    1       -0.0000039217
    9    6    9    2        0.0013387955
    9    6    9    5        0.0561264736
    9    6    9    6        0.0852273118
    9    7    9    1        0.0000029812
    9    7    9    2        0.0007072403
    9    7    9    5        0.0318252343
    9    7    9    6        0.0488976961
    9    7    9    7        0.0400410350
    9    8    9    1        0.0000034111
    9    8    9    2       -0.0001691316
    9    8    9    5       -0.0015999306
    9    8    9    6        0.0000047240
    9    8    9    7       -0.0007684360
    9    8    9    8        0.0453116577
    9    9    9    3        0.0009661065
    9    9    9    4       -0.0002201504
    9    9    9    9        0.7842810578
   10    3    1    1       -0.0040952923
   10    4    1    1       -0.0179717494
   10   10    1    1        0.1910541038
   10    3    2    1        0.0001050973
   10    3    2    2       -0.0018528160
   10    4    2    1        0.0004612080
   10    4    2    2       -0.0081308837
   10   10    2    1       -0.0000245214
   10   10    2    2        0.1907703566
   10    1    3    1       -0.0003651491
   10    1    3    2       -0.0003502796
   10    2    3    1       -0.0002025933
   10    2    3    2       -0.0004754898
   10    3    3    3       -0.0020059408
   10    4    3    3       -0.0075223277
   10    5    3    1        0.0000423686
   10    5    3    2        0.0003520467
   10    6    3    1        0.0000520103
   10    6    3    2        0.0005259140
   10    7    3    1       -0.0000095681
   10    7    3    2        0.0000033124
   10    8    3    1       -0.0000245564
   10    8    3    2       -0.0002102317
   10    9    3    3        0.0000528761
   10   10    3    3        0.1885183520
   10    1    4    1       -0.0016024173
   10    1    4    2       -0.0015371641
   10    2    4    1       -0.0008890588
   10    2    4    2       -0.0020866359
   10    3    4    3       -0.0006199922
   10    3    4    4       -0.0017141420
   10    4    4    3       -0.0001505188
   10    4    4    4       -0.0088028554
   10    5    4    1        0.0001859299
   10    5    4    2        0.0015449191
   10    6    4    1        0.0002282417
   10    6    4    2        0.0023079168
   10    7    4    1       -0.0000419884
   10    7    4    2        0.0000145363
   10    8    4    1       -0.0001077630
   10    8    4    2       -0.0009225790
   10    9    4    3        0.0001098964
   10    9    4    4       -0.0000528761
   10   10    4    3        0.0000528761
   10   10    4    4        0.1887383441
   10    1    5    3        0.0000071411
   10    1    5    4        0.0000313380
   10    2    5    3        0.0000239328
   10    2    5    4        0.0001050265
   10    3    5    1       -0.0000009522
   10    3    5    2        0.0000608526
   10    3    5    5       -0.0009941214
   10    4    5    1       -0.0000041787
   10    4    5    2        0.0002670452
   10    4    5    5       -0.0043625950
   10    5    5    3        0.0000618532
   10    5    5    4        0.0002714360
   10    6    5    3        0.0002238573
   10    6    5    4        0.0009823735
   10    7    5    3        0.0000117401
   10    7    5    4        0.0000515201
   10    8    5    3       -0.0001211075
   10    8    5    4       -0.0005314673
   10   10    5    1        0.0015811721
   10   10    5    2        0.0209197287
   10   10    5    5        0.3308345402
   10    1    6    3        0.0000090765
   10    1    6    4        0.0000398311
   10    2    6    3        0.0000101672
   10    2    6    4        0.0000446175
   10    3    6    1       -0.0000033008
   10    3    6    2        0.0000332729
   10    3    6    5        0.0008671375
   10    3    6    6       -0.0004675304
   10    4    6    1       -0.0000144852
   10    4    6    2        0.0001460144
   10    4    6    5        0.0038053397
   10    4    6    6       -0.0020517070
   10    5    6    3        0.0001443682
   10    5    6    4        0.0006335444
   10    6    6    3       -0.0001152860
   10    6    6    4       -0.0005059200
   10    7    6    3        0.0000194506
   10    7    6    4        0.0000853568
   10    8    6    3        0.0000694296
   10    8    6    4        0.0003046842
   10   10    6    1       -0.0010187062
   10   10    6    2       -0.0056391427
   10   10    6    5        0.2019688365
   10   10    6    6        0.4975497688
   10    1    7    3       -0.0000179695
   10    1    7    4       -0.0000788570
   10    2    7    3       -0.0000557958
   10    2    7    4       -0.0002448537
   10    3    7    1        0.0000050725
   10    3    7    2       -0.0001095685
   10    3    7    5       -0.0000694387
   10    3    7    6        0.0001583745
   10    3    7    7        0.0001196777
   10    4    7    1        0.0000222601
   10    4    7    2       -0.0004808295
   10    4    7    5       -0.0003047244
   10    4    7    6        0.0006950094
   10    4    7    7        0.0005251926
   10    5    7    3       -0.0000401514
   10    5    7    4       -0.0001762001
   10    6    7    3       -0.0000337376
   10    6    7    4       -0.0001480539
   10    7    7    3        0.0000022694
   10    7    7    4        0.0000099591
   10    8    7    3        0.0000253388
   10    8    7    4        0.0001111966
   10   10    7    1        0.0001874578
   10   10    7    2        0.0009994138
   10   10    7    5        0.0988587792
   10   10    7    6        0.1714255438
   10   10    7    7        0.5577100767
   10    1    8    3       -0.0000086354
   10    1    8    4       -0.0000378954
   10    2    8    3       -0.0000264929
   10    2    8    4       -0.0001162614
   10    3    8    1        0.0000032555
   10    3    8    2       -0.0000498655
   10    3    8    5       -0.0002690786
   10    3    8    6        0.0001955367
   10    3    8    7       -0.0000358224
   10    3    8    8        0.0000948690
   10    4    8    1        0.0000142864
   10    4    8    2       -0.0002188296
   10    4    8    5       -0.0011808225
   10    4    8    6        0.0008580916
   10    4    8    7       -0.0001572029
   10    4    8    8        0.0004163224
   10    5    8    3       -0.0000989432
   10    5    8    4       -0.0004342017
   10    6    8    3       -0.0000053918
   10    6    8    4       -0.0000236612
   10    7    8    3       -0.0000089723
   10    7    8    4       -0.0000393739
   10    8    8    3        0.0000312379
   10    8    8    4        0.0001370841
   10   10    8    1        0.0004924180
   10   10    8    2       -0.0027980319
   10   10    8    5       -0.0151550461
   10   10    8    6        0.0055051168
   10   10    8    7       -0.0074469530
   10   10    8    8        0.6619738193
   10    3    9    3        0.0000635436
   10    3    9    4        0.0000435051
   10    3    9    9        0.0001847148
   10    4    9    3        0.0002208694
   10    4    9    4       -0.0000635436
   10    4    9    9        0.0008106008
   10    9    9    3        0.0000177090
   10    9    9    4        0.0000777140
   10   10    9    3        0.0008106008
   10   10    9    4       -0.0001847148
   10   10    9    9        0.6883047863
   10    1   10    1        0.0000715698
   10    2   10    1        0.0000399524
   10    2   10    2        0.0001501206
   10    3   10    3        0.0000773441
   10    4   10    3        0.0000635436
   10    4   10    4        0.0003417186
   10    5   10    1       -0.0000050328
   10    5   10    2        0.0009002735
   10    5   10    5        0.0371148514
   10    6   10    1       -0.0000039217
   10    6   10    2        0.0013387955
   10    6   10    5        0.0561264736
   10    6   10    6        0.0852273118
   10    7   10    1        0.0000029812
   10    7   10    2        0.0007072403
   10    7   10    5        0.0318252343
   10    7   10    6        0.0488976961
   10    7   10    7        0.0400410350
   10    8   10    1        0.0000034111
   10    8   10    2       -0.0001691316
   10    8   10    5       -0.0015999306
   10    8   10    6        0.0000047240
   10    8   10    7       -0.0007684360
   10    8   10    8        0.0453116577
   10    9   10    3        0.0000777917
   10    9   10    4       -0.0000177267
   10    9   10    9        0.0479881358
   10   10   10    3        0.0002201504
   10   10   10    4        0.0009661065
   10   10   10   10        0.7842810578
 end_two_electron_integrals
 fcidump
      5.3568308463     1   1   1   1
     -0.5454433400     2   1   1   1
      0.0879649182     2   1   2   1
      1.2941501981     2   2   1   1
     -0.0253374880     2   2   2   1
      0.9017362256     2   2   2   2
      0.0379596529     3   1   3   1
      0.0410939916     3   2   3   1
      0.1702069587     3   2   3   2
      1.2470550854     3   3   1   1
     -0.0170186445     3   3   2   1
      0.8737697897     3   3   2   2
      0.9005103376     3   3   3   3
      0.0379596529     4   1   4   1
      0.0410939916     4   2   4   1
      0.1702069587     4   2   4   2
      0.0395087572     4   3   4   3
      1.2470550854     4   4   1   1
     -0.0170186445     4   4   2   1
      0.8737697897     4   4   2   2
      0.8170136604     4   4   3   3
      0.9005103376     4   4   4   4
      0.0122120352     5   1   1   1
     -0.0020388953     5   1   2   1
      0.0005706094     5   1   2   2
      0.0003625500     5   1   3   3
      0.0003625500     5   1   4   4
      0.0245238302     5   1   5   1
     -0.0197442624     5   2   1   1
      0.0006118240     5   2   2   1
     -0.0109583315     5   2   2   2
     -0.0107649919     5   2   3   3
     -0.0107649919     5   2   4   4
      0.0263011965     5   2   5   1
      0.1115863364     5   2   5   2
     -0.0008535925     5   3   3   1
     -0.0029670763     5   3   3   2
      0.0254667898     5   3   5   3
     -0.0008535925     5   4   4   1
     -0.0029670763     5   4   4   2
      0.0254667898     5   4   5   4
      0.8864676156     5   5   1   1
     -0.0107625705     5   5   2   1
      0.6443988729     5   5   2   2
      0.6038187712     5   5   3   3
      0.6038187712     5   5   4   4
      0.0000156058     5   5   5   1
     -0.0018074923     5   5   5   2
      0.5409501954     5   5   5   5
      0.0140477582     6   1   1   1
     -0.0023273958     6   1   2   1
      0.0005516472     6   1   2   2
      0.0003460295     6   1   3   3
      0.0003460295     6   1   4   4
     -0.0172741126     6   1   5   1
     -0.0190426265     6   1   5   2
      0.0005373365     6   1   5   5
      0.0126629523     6   1   6   1
     -0.0222779439     6   2   1   1
      0.0005564089     6   2   2   1
     -0.0135317834     6   2   2   2
     -0.0130870459     6   2   3   3
     -0.0130870459     6   2   4   4
     -0.0177882508     6   2   5   1
     -0.0795479760     6   2   5   2
     -0.0084288778     6   2   5   5
      0.0132793514     6   2   6   1
      0.0596681096     6   2   6   2
     -0.0009977427     6   3   3   1
     -0.0035976581     6   3   3   2
     -0.0219087706     6   3   5   3
      0.0197576956     6   3   6   3
     -0.0009977427     6   4   4   1
     -0.0035976581     6   4   4   2
     -0.0219087706     6   4   5   4
      0.0197576956     6   4   6   4
     -0.4315404826     6   5   1   1
      0.0040395282     6   5   2   1
     -0.2999008659     6   5   2   2
     -0.2753008732     6   5   3   3
     -0.2753008732     6   5   4   4
      0.0004454226     6   5   5   1
      0.0138183861     6   5   5   2
     -0.1587444927     6   5   5   5
     -0.0003301446     6   5   6   1
      0.0027729967     6   5   6   2
      0.2334751548     6   5   6   5
      0.5223293215     6   6   1   1
     -0.0050001877     6   6   2   1
      0.4117568010     6   6   2   2
      0.3942433036     6   6   3   3
      0.3942433036     6   6   4   4
      0.0018339555     6   6   5   1
      0.0123896608     6   6   5   2
      0.4299817907     6   6   5   5
     -0.0010524252     6   6   6   1
     -0.0094469300     6   6   6   2
      0.0119355941     6   6   6   5
      0.4476040073     6   6   6   6
     -0.0320086537     7   1   1   1
      0.0053922024     7   1   2   1
[...]
 tce:printtol                          double[1]      Wed Jul 31 08:47:44 2019 
 tce:restart_ccsd_t                       int[1]      Wed Jul 31 08:47:44 2019 
 scf:nclosed                              int[1]      Wed Jul 31 08:47:43 2019 
 geometry:geometry:atomct              double[2]      Wed Jul 31 08:47:43 2019 
 scf:nmo                                  int[1]      Wed Jul 31 08:47:43 2019 
 tce:nroots_restart                       int[1]      Wed Jul 31 08:47:44 2019 
 tce:leftresp                         logical[1]      Wed Jul 31 08:47:44 2019 
 :print                                  char[5]      Wed Jul 31 08:47:43 2019 
 task:theory                             char[4]      Wed Jul 31 08:47:43 2019 
 tce:skip_l                           logical[1]      Wed Jul 31 08:47:44 2019 
 tce:maxs                                 int[1]      Wed Jul 31 08:47:43 2019 
 task:cputime                          double[1]      Wed Jul 31 08:47:55 2019 
 task:walltime                         double[1]      Wed Jul 31 08:47:55 2019 
 tce:ioalg                                int[1]      Wed Jul 31 08:47:43 2019 
 tce:bfreq                             double[1]      Wed Jul 31 08:47:44 2019 
 tce:damp                              double[1]      Wed Jul 31 08:47:44 2019 
 geometry:geometry:efield              double[3]      Wed Jul 31 08:47:43 2019 
 tce:fragment                             int[1]      Wed Jul 31 08:47:43 2019 
 tce:multipole                            int[1]      Wed Jul 31 08:47:43 2019 
 geometry:geometry:use_primitive        logical[1]      Wed Jul 31 08:47:43 2019 
 tce:save_lr                          logical[8]      Wed Jul 31 08:47:44 2019 
 tce:skip_lr                          logical[1]      Wed Jul 31 08:47:44 2019 
 tce:reference                            int[1]      Wed Jul 31 08:47:43 2019 
 tce:restart_ignore_failure           logical[4]      Wed Jul 31 08:47:44 2019 
 tce:guess_lr_real                    logical[1]      Wed Jul 31 08:47:44 2019 
 basis:ao basis:tags info                 int[280]    Wed Jul 31 08:47:43 2019 
 tce:skip_t                           logical[1]      Wed Jul 31 08:47:44 2019 
 tce:hbard                                int[1]      Wed Jul 31 08:47:43 2019 
 tce:diagnt1                          logical[1]      Wed Jul 31 08:47:44 2019 
 tce:read_integrals                   logical[5]      Wed Jul 31 08:47:43 2019 
 tce:bnumfreq                             int[1]      Wed Jul 31 08:47:44 2019 
 tce:ccsdvar                             char[5]      Wed Jul 31 08:47:44 2019 
 tce:lineresp                         logical[1]      Wed Jul 31 08:47:44 2019 
 tce:save_l                           logical[4]      Wed Jul 31 08:47:44 2019 
 tce:ichopx                               int[1]      Wed Jul 31 08:47:43 2019 
 tce:nogamma                          logical[1]      Wed Jul 31 08:47:44 2019 
 scf:dipole                            double[3]      Wed Jul 31 08:47:44 2019 
 geometry:ngeom                           int[1]      Wed Jul 31 08:47:43 2019 
 tce:uact                                 int[1]      Wed Jul 31 08:47:43 2019 
 tce:save_tr                          logical[8]      Wed Jul 31 08:47:44 2019 
 geometry:geometry:operators           double[2304]   Wed Jul 31 08:47:43 2019 
 tce:zlshiftl                          double[1]      Wed Jul 31 08:47:43 2019 
 tce:skip_tr                          logical[1]      Wed Jul 31 08:47:44 2019 
 basis:ao basis:star nr tags              int[1]      Wed Jul 31 08:47:43 2019 
 tce:anumfreq                             int[1]      Wed Jul 31 08:47:44 2019 
 tce:save_t                           logical[4]      Wed Jul 31 08:47:44 2019 
 geometry:geometry:recip vectors         double[3]      Wed Jul 31 08:47:43 2019 
 tce:model                               char[5]      Wed Jul 31 08:47:43 2019 
 tce:maxiter                              int[1]      Wed Jul 31 08:47:43 2019 
 tce:symmetry                         logical[1]      Wed Jul 31 08:47:43 2019 
 tce:save_x                           logical[4]      Wed Jul 31 08:47:44 2019 
 geometry:geometry:no. unique centers            int[1]      Wed Jul 31 08:47:43 2019 
 basis:ao basis:contraction info            int[90000]  Wed Jul 31 08:47:43 2019 
 tce:save_y                           logical[4]      Wed Jul 31 08:47:44 2019 
 basis:ao basis:bs_nr_tags                int[1]      Wed Jul 31 08:47:43 2019 
 geometry:geometry:group number            int[1]      Wed Jul 31 08:47:43 2019 
 tce:nactv                                int[1]      Wed Jul 31 08:47:43 2019 
 tce:active_va                            int[1]      Wed Jul 31 08:47:43 2019 
 geometry:geometry:recip angles         double[3]      Wed Jul 31 08:47:43 2019 
 tce:active_vb                            int[1]      Wed Jul 31 08:47:43 2019 
 tce:active_oa                            int[1]      Wed Jul 31 08:47:43 2019 
 tce:active_ob                            int[1]      Wed Jul 31 08:47:43 2019 
 tce:thresh                            double[1]      Wed Jul 31 08:47:43 2019 
 geometry:geometry:system type            int[1]      Wed Jul 31 08:47:43 2019 
 tce:energy                            double[1]      Wed Jul 31 08:47:55 2019 
 tce:nopolar                          logical[1]      Wed Jul 31 08:47:44 2019 
 basis:ao basis:bs_stdname               char[16]     Wed Jul 31 08:47:43 2019 
 geometry:geometry:charges             double[2]      Wed Jul 31 08:47:43 2019 
 tce:respaxis                         logical[3]      Wed Jul 31 08:47:44 2019 
 tce:perturbative                        char[5]      Wed Jul 31 08:47:44 2019 
 scf:multiplicity                        char[8]      Wed Jul 31 08:47:43 2019 
 scf:output vectors                      char[23]     Wed Jul 31 08:47:43 2019 
 basis:ao basis:header                    int[7]      Wed Jul 31 08:47:43 2019 
 geometry:geometry:tags                  char[4]      Wed Jul 31 08:47:43 2019 
 scf:input vectors                       char[23]     Wed Jul 31 08:47:43 2019 
 geometry:geometry:include_bqbq        logical[1]      Wed Jul 31 08:47:43 2019 
 tce:qducc                            logical[1]      Wed Jul 31 08:47:43 2019 
 geometry:geometry:group name            char[3]      Wed Jul 31 08:47:43 2019 
 tce:model2e                             char[6]      Wed Jul 31 08:47:43 2019 
 tce:eactmax                           double[1]      Wed Jul 31 08:47:43 2019 
 tce:zlshift2                          double[2]      Wed Jul 31 08:47:43 2019 
 tce:eactmin                           double[1]      Wed Jul 31 08:47:43 2019 
 basisprint:ao basis                  logical[1]      Wed Jul 31 08:47:43 2019 
 tce:oact                                 int[1]      Wed Jul 31 08:47:43 2019 
 tce:zlshift3                          double[2]      Wed Jul 31 08:47:43 2019 
 tce:densmat                          logical[1]      Wed Jul 31 08:47:43 2019 
 tce:nroots                               int[1]      Wed Jul 31 08:47:43 2019 
 scf:converged                        logical[1]      Wed Jul 31 08:47:44 2019 
 scf:nelec                                int[1]      Wed Jul 31 08:47:43 2019 
 tce:maxdiff                           double[1]      Wed Jul 31 08:47:44 2019 
 tce:guess_qr_real                    logical[1]      Wed Jul 31 08:47:44 2019 
 basis:ao basis:number of exps and coeffs            int[1]      Wed Jul 31 08:47:43 2019 
 geometry:names                          char[9]      Wed Jul 31 08:47:43 2019 
 geometry:geometry:masses              double[2]      Wed Jul 31 08:47:43 2019 
 tce:zlshift                           double[1]      Wed Jul 31 08:47:43 2019 
 tce:eoms                                 int[1]      Wed Jul 31 08:47:43 2019 
 tce:ampnorms                         logical[1]      Wed Jul 31 08:47:44 2019 
 scf:scftype                             char[4]      Wed Jul 31 08:47:43 2019 
 tce:diis2                                int[1]      Wed Jul 31 08:47:43 2019 
 tce:read_l                           logical[4]      Wed Jul 31 08:47:44 2019 
 tce:enegr                             double[1]      Wed Jul 31 08:47:55 2019 
 basis:ao basis:exps and coeffs         double[54]     Wed Jul 31 08:47:43 2019 
 tce:diis3                                int[1]      Wed Jul 31 08:47:43 2019 
 geometry:geometry:unique centers            int[2]      Wed Jul 31 08:47:43 2019 
 tce:read_lr                          logical[8]      Wed Jul 31 08:47:44 2019 
 geometry:geometry:amatrix             double[9]      Wed Jul 31 08:47:43 2019 
 geometry:geometry:inv nuc expon         double[2]      Wed Jul 31 08:47:43 2019 
 geometry:geometry:vel                 double[6]      Wed Jul 31 08:47:43 2019 
 task:status                          logical[1]      Wed Jul 31 08:47:55 2019 
 geometry:geometry:direct volume         double[1]      Wed Jul 31 08:47:43 2019 
 tce:afreq                             double[1]      Wed Jul 31 08:47:44 2019 
 geometry:geometry:num_operators            int[1]      Wed Jul 31 08:47:43 2019 
 tce:read_t                           logical[4]      Wed Jul 31 08:47:44 2019 
 tce:save_interval                        int[1]      Wed Jul 31 08:47:44 2019 
 basis:nbasis                             int[1]      Wed Jul 31 08:47:43 2019 
 file_prefix                             char[14]     Wed Jul 31 08:47:43 2019 
 geometry:geometry:primitive_center           char[2]      Wed Jul 31 08:47:43 2019 
 task:energy                           double[1]      Wed Jul 31 08:47:55 2019 
 geometry:geometry:ncenter                int[1]      Wed Jul 31 08:47:43 2019 
 tce:idiskx                               int[1]      Wed Jul 31 08:47:43 2019 
 tce:damp2                             double[1]      Wed Jul 31 08:47:44 2019 
 tce:quadresp                         logical[1]      Wed Jul 31 08:47:44 2019 
 tce:damp3                             double[1]      Wed Jul 31 08:47:44 2019 
 scf:thresh                            double[1]      Wed Jul 31 08:47:43 2019 
 scf:energy                            double[1]      Wed Jul 31 08:47:44 2019 
 tce:read_tr                          logical[8]      Wed Jul 31 08:47:44 2019 
 tce:read_x                           logical[4]      Wed Jul 31 08:47:44 2019 
 basis:ao basis:assoc ecp name           char[4]      Wed Jul 31 08:47:43 2019 
 tce:read_y                           logical[4]      Wed Jul 31 08:47:44 2019 
 geometry:geometry:zmt_source            char[2]      Wed Jul 31 08:47:43 2019 
 geometry:geometry:setting number            int[1]      Wed Jul 31 08:47:43 2019 
 tce:act_excit_lvl                        int[1]      Wed Jul 31 08:47:43 2019 
 basis:ao basis:bs_tags                  char[4]      Wed Jul 31 08:47:43 2019 
 tce:i4im                                 int[1]      Wed Jul 31 08:47:43 2019 
 scf:tol2e                             double[1]      Wed Jul 31 08:47:43 2019 
 tce:diis                                 int[1]      Wed Jul 31 08:47:43 2019 
 tce:recompf                          logical[1]      Wed Jul 31 08:47:43 2019 
 rtdb:stored:state                    logical[3]      Wed Jul 31 08:47:43 2019 
 scf:alpha irreps                         int[19]     Wed Jul 31 08:47:44 2019 
 tce:module                              char[4]      Wed Jul 31 08:47:43 2019 
 tce:target                               int[1]      Wed Jul 31 08:47:43 2019 
 tce:left                             logical[1]      Wed Jul 31 08:47:43 2019 


 HDBM usage statistics
 ---------------------
 Reads         = 1805
 Inserts       = 928
 Replaces      = 320
 Extracts      = 0
 Deletes       = 1842
 Reuses        = 16

 Memory allocs = 8557
 Memory frees  = 8557
 Memory max    = 1512932
 Memory in use = 0

 IO seeks      = 3484
 IO reads      = 2535
 IO writes     = 2803
 IO nread      = 3035871
 IO nwrite     = 2275903

 Summary of allocated global arrays
-----------------------------------
  No active global arrays



                         GA Statistics for process    0
                         ------------------------------

       create   destroy   get      put      acc     scatter   gather  read&inc
calls: 3349     3349     1.06e+04 4232     6567        0        0     6985     
number of processes/call 4.21e+14 6.79e+14 1.92e+13 0.00e+00 0.00e+00
bytes total:             2.98e+08 1.52e+07 7.24e+07 0.00e+00 0.00e+00 5.59e+04
bytes remote:            0.00e+00 0.00e+00 0.00e+00 0.00e+00 0.00e+00 0.00e+00
Max memory consumed for GA by this process: 1663800 bytes

MA_summarize_allocated_blocks: starting scan ...
MA_summarize_allocated_blocks: scan completed: 0 heap blocks, 0 stack blocks
MA usage statistics:

	allocation statistics:
					      heap	     stack
					      ----	     -----
	current number of blocks	         0	         0
	maximum number of blocks	        17	        40
	current total bytes		         0	         0
	maximum total bytes		   1060368	  55520424
	maximum total K-bytes		      1061	     55521
	maximum total M-bytes		         2	        56

	calls per routine:
		        39  MA_alloc_get
		        39  MA_allocate_heap
		       211  MA_chop_stack
		        39  MA_free_heap
		         0  MA_free_heap_piece
		     24708  MA_get_index
		         5  MA_get_mbase
		         0  MA_get_next_memhandle
		         0  MA_get_numalign
		        69  MA_get_pointer
		         1  MA_init
		         0  MA_initialized
		         0  MA_init_memhandle_iterator
		       422  MA_inquire_avail
		         1  MA_inquire_heap
		         0  MA_inquire_heap_check_stack
		         0  MA_inquire_heap_no_partition
		         1  MA_inquire_stack
		         0  MA_inquire_stack_check_heap
		         0  MA_inquire_stack_no_partition
		     24435  MA_pop_stack
		         1  MA_print_stats
		     24669  MA_push_get
		     24738  MA_push_stack
		         3  MA_set_auto_verify
		         1  MA_set_error_print
		         3  MA_set_hard_fail
		         1  MA_set_numalign
		      9138  MA_sizeof
		        35  MA_sizeof_overhead
		         1  MA_summarize_allocated_blocks
		         0  MA_trace
		     83832  MA_verify_allocator_stuff


                                     CITATION
                                     --------
                Please cite the following reference when publishing
                           results obtained with NWChem:

                 M. Valiev, E.J. Bylaska, N. Govind, K. Kowalski,
              T.P. Straatsma, H.J.J. van Dam, D. Wang, J. Nieplocha,
                        E. Apra, T.L. Windus, W.A. de Jong
                 "NWChem: a comprehensive and scalable open-source
                  solution for large scale molecular simulations"
                      Comput. Phys. Commun. 181, 1477 (2010)
                           doi:10.1016/j.cpc.2010.04.018

                                      AUTHORS
                                      -------
          E. Apra, E. J. Bylaska, W. A. de Jong, N. Govind, K. Kowalski,
       T. P. Straatsma, M. Valiev, H. J. J. van Dam, D. Wang, T. L. Windus,
        J. Hammond, J. Autschbach, K. Bhaskaran-Nair, J. Brabec, K. Lopata,
    S. A. Fischer, S. Krishnamoorthy, M. Jacquelin, W. Ma, M. Klemm, O. Villa,
      Y. Chen, V. Anisimov, F. Aquino, S. Hirata, M. T. Hackler, V. Konjkov,
            D. Mejia-Rodriguez, T. Risthaus, M. Malagoli, A. Marenich,
   A. Otero-de-la-Roza, J. Mullin, P. Nichols, R. Peverati, J. Pittner, Y. Zhao,
        P.-D. Fan, A. Fonari, M. J. Williamson, R. J. Harrison, J. R. Rehr,
      M. Dupuis, D. Silverstein, D. M. A. Smith, J. Nieplocha, V. Tipparaju,
    M. Krishnan, B. E. Van Kuiken, A. Vazquez-Mayagoitia, L. Jensen, M. Swart,
      Q. Wu, T. Van Voorhis, A. A. Auer, M. Nooijen, L. D. Crosby, E. Brown,
      G. Cisneros, G. I. Fann, H. Fruchtl, J. Garza, K. Hirao, R. A. Kendall,
      J. A. Nichols, K. Tsemekhman, K. Wolinski, J. Anchell, D. E. Bernholdt,
      P. Borowski, T. Clark, D. Clerc, H. Dachsel, M. J. O. Deegan, K. Dyall,
    D. Elwood, E. Glendening, M. Gutowski, A. C. Hess, J. Jaffe, B. G. Johnson,
     J. Ju, R. Kobayashi, R. Kutteh, Z. Lin, R. Littlefield, X. Long, B. Meng,
      T. Nakajima, S. Niu, L. Pollack, M. Rosing, K. Glaesemann, G. Sandrone,
      M. Stave, H. Taylor, G. Thomas, J. H. van Lenthe, A. T. Wong, Z. Zhang.

                                    REFERENCES
                                    ----------

          Where appropriate, please cite the following reference(s) 
          when publishing results obtained with NWChem:


     1. D. E. Bernholdt, E. Apra, H. A. Fruchtl, M.F. Guest, R. J. Harrison, 
        R. A. Kendall, R. A. Kutteh, X. Long, J. B. Nicholas, J. A. Nichols, 
        H. L. Taylor, A. T. Wong, G. I. Fann, R. J. Littlefield and
        J. Nieplocha,
        "Parallel Computational Chemistry Made Easier: 
        The Development of NWChem,"
        Int. J. Quantum Chem. Symposium  29, 475-483 (1995).


     2. M. F. Guest, E. Apra, D. E. Bernholdt, H. A. Fruchtl, R. J. Harrison, 
        R. A. Kendall, R. A. Kutteh, X. Long, J. B. Nicholas, J. A. Nichols, 
        H. L. Taylor, A. T. Wong, G. I. Fann, R. J. Littlefield and
        J. Nieplocha,
        "High Performance Computational Chemistry: NWChem and Fully Distributed
        Parallel Applications", in Advances in Parallel Computing, 10, High
        Performance Computing: Technology, Methods, and Applications, Eds. 
        J. Dongarra, L. Gradinetti, G. Joubert, and J. Kowalik, 
        (Elsevier Science B. V. pp. 395-427, 1995).


     3. M. F. Guest, E. Apra, D. E. Bernholdt, H. A. Fruchtl, R. J. Harrison, 
        R. A. Kendall, R. A. Kutteh, J. B. Nicholas, J. A. Nichols, M. S. Stave,
        A. T. Wong, R. J. Littlefield and J. Nieplocha, "High Performance 
        Computational Chemistry: Towards Fully Distributed Parallel Algorithms",
        in High Performance Computing: Symposium 1995, Grand Challenges in 
        Computer Simulation, Adrian M. Tentner, Editor, Proceedings of the 1995 
        Simulation Multiconference, April 9-13, 1995, Phoenix, Arizona, 
        Simulation Councils, Inc., The Society for Computer Simulation, 
        San Diego, CA, 1995. pp. 511-521.


     4. M. F. Guest, E. Apra, D. E. Bernholdt, H. A. Fruchtl, R. J. Harrison,
        R. A. Kendall, R. A. Kutteh, X. Long, J. B. Nicholas, J. A. Nichols, 
        H. L. Taylor, A. T. Wong, G. I. Fann, R. J. Littlefield and
        J. Nieplocha,
        "Advances in Parallel Distributed Data Software; Computational Chemistry
        and NWChem", in Applied Parallel Computing.  Computations in Physics,
        Chemistry, and Engineering Science, Eds. J. Wasnieski, J. Dongarra, and 
        K. Madsen, Lecture Notes in Computer Science, 1041,
        (Springer-Verlag, Berlin, 278-294, 1996).


     5. M. F. Guest, E. Apra, D. E. Bernholdt, H. A. Fruchtl, R. J. Harrison,
        R. A. Kendall, R. A. Kutteh, X. Long, J. B. Nicholas, J. A. Nichols, 
        H. L. Taylor, A. T. Wong, G. I. Fann, R. J. Littlefield and
        J. Nieplocha, 
        "High-Performance Computing in Chemistry; NWChem", Future 
        Generations Computer Systems  12(4), 273, (1996).


     6. R. A. Kendall, E. Apra, D. E. Bernholdt, E. J. Bylaska, M. Dupuis,
        G. I. Fann, R. J. Harrison, J. Ju, J. A. Nichols, J. Nieplocha,
        T. P. Straatsma, T. L. Windus, A. T. Wong,
        Computer Phys. Comm. 128, 260 (2000).


     7. T. P. Straatsma and V. Helms, in Molecular Dynamics on Parallel
        Computers2000, R. Esser et al. editors, p 70.


     8.  T. P. Straatsma, M. Philippopoulos and J. A. McCammon,
         Computer Phys. Comm. 128, 377 (2000).


     9.  M. Valiev, E. J. Bylaska, A. Gramada, and J. H. Weare,
         Reviews in Modern Quantum Chemistry, pages 1684-1734
         (World Scientific, Singapore, 2002).


    10.  E. J. Bylaska, M. Valiev, R. Kawai, and J. H. Weare,
         Computer Phys. Comm. 143, 11 (2002).


    11.  M. Valiev and J. H. Weare,
         J. Phys. Chem. A, 103, 10588 (1999).



 Total times  cpu:       11.4s     wall:       11.4s
