 argument  1 = originalHF.nw
  NWChem w/ OpenMP: maximum threads =    4



============================== echo of input deck ==============================
start tce_hf_2.292

echo
memory total 6 gb
print high

geometry units angstrom
symmetry c1
H  0.0000000  0.0000  2.292
F  0.0000000  0.0000  0.00000
end


basis spherical
H library cc-pvdz
F library cc-pvdz
end

scf
thresh 1.0e-10
tol2e 1.0e-10
singlet
rhf
end

tce
2eorb
2emet 13
thresh 1.0d-8
ccsd
end

set tce:qducc T
set tce:nactv 5

task tce energy

================================================================================


                                         
                                         


              Northwest Computational Chemistry Package (NWChem) 6.8
              ------------------------------------------------------


                    Environmental Molecular Sciences Laboratory
                       Pacific Northwest National Laboratory
                                Richland, WA 99352

                              Copyright (c) 1994-2018
                       Pacific Northwest National Laboratory
                            Battelle Memorial Institute

             NWChem is an open-source computational chemistry package
                        distributed under the terms of the
                      Educational Community License (ECL) 2.0
             A copy of the license is included with this distribution
                              in the LICENSE.TXT file

                                  ACKNOWLEDGMENT
                                  --------------

            This software and its documentation were developed at the
            EMSL at Pacific Northwest National Laboratory, a multiprogram
            national laboratory, operated for the U.S. Department of Energy
            by Battelle under Contract Number DE-AC05-76RL01830. Support
            for this work was provided by the Department of Energy Office
            of Biological and Environmental Research, Office of Basic
            Energy Sciences, and the Office of Advanced Scientific Computing.


           Job information
           ---------------

    hostname        = WE27583
    program         = /Users/lamm799/nwchem/bin/MACX64/nwchem
    date            = Tue Jul 30 17:29:09 2019

    compiled        = Mon_Jul_15_13:12:43_2019
    source          = /Users/lamm799/nwchem
    nwchem branch   = Development
    nwchem revision = nwchem_on_git-975-g459e4567d
    ga revision     = 5.7.0
    use scalapack   = F
    input           = originalHF.nw
    prefix          = tce_hf_2.292.
    data base       = ./tce_hf_2.292.db
    status          = startup
    nproc           =        1
    time left       =     -1s



           Memory information
           ------------------

    heap     =  201326588 doubles =   1536.0 Mbytes
    stack    =  201326593 doubles =   1536.0 Mbytes
    global   =  402653184 doubles =   3072.0 Mbytes (distinct from heap & stack)
    total    =  805306365 doubles =   6144.0 Mbytes
    verify   = yes
    hardfail = no 


           Directory information
           ---------------------

  0 permanent = .
  0 scratch   = .




                                NWChem Input Module
                                -------------------



 Scaling coordinates for geometry "geometry" by  1.889725989
 (inverse scale =  0.529177249)

 Turning off AUTOSYM since
 SYMMETRY directive was detected!

     MOLECULAR POINT GROUP NUMBER =  1     SCHOENFLIES SYMBOL = C1        

                --------------- GROUP GENERATORS ---------------

                      1 GENERATORS USED TO FORM THE GROUP

                         PT fold Rotoinversion Operator
                     1.000000  0.000000  0.000000  0.000000
                     0.000000  1.000000  0.000000  0.000000
                     0.000000  0.000000  1.000000  0.000000


The   1 symmetry operators (excl. E) are as follows:



                    ---------- FULL LISTING OF GROUP ----------

                  MATRIX REPRESENTATIONS OF THE GROUP OPERATORS

     EXCLUDING THE IDENTITY OPERATOR THERE ARE  1 OPERATORS IN THIS GROUP

                         pt fold Rotoinversion Operator
                     1.000000  0.000000  0.000000  0.000000
                     0.000000  1.000000  0.000000  0.000000
                     0.000000  0.000000  1.000000  0.000000


                  <<< SYMMETRY OPERATION/ATOM MAPPING BUILT >>>
      Symmetry information
      --------------------

 Group name             C1        
 Group number              1
 Group order               1
 No. of unique centers     2



                  Character table for group C1      

                  1e     
        a          1.000

      Symmetry unique atoms

     1    2

      Mapping of centers


      Group operations



          ------
          auto-z
          ------
     1 autoz failed with cvr_scaling = 1.2 changing to 1.3
     2 autoz failed with cvr_scaling = 1.3 changing to 1.4
     3 autoz failed with cvr_scaling = 1.4 changing to 1.5
     4 autoz failed with cvr_scaling = 1.5 changing to 1.6
     5 autoz failed with cvr_scaling = 1.6 changing to 1.7

 AUTOZ failed to generate good internal coordinates.
 Cartesian coordinates will be used in optimizations.



                             Geometry "geometry" -> ""
                             -------------------------

 Output coordinates in angstroms (scale by  1.889725989 to convert to a.u.)

  No.       Tag          Charge          X              Y              Z
 ---- ---------------- ---------- -------------- -------------- --------------
    1 H                    1.0000     0.00000000     0.00000000     2.06280000
    2 F                    9.0000     0.00000000     0.00000000    -0.22920000

      Atomic Mass 
      ----------- 

      H                  1.007825
      F                 18.998400


 Effective nuclear repulsion energy (a.u.)       2.0779211348

            Nuclear Dipole moment (a.u.) 
            ----------------------------
        X                 Y               Z
 ---------------- ---------------- ----------------
     0.0000000000     0.0000000000     0.0000000000


            XYZ format geometry
            -------------------
     2
 geometry
 H                     0.00000000     0.00000000     2.06280000
 F                     0.00000000     0.00000000    -0.22920000

                      Basis "ao basis" -> "" (spherical)
                      -----
  H (Hydrogen)
  ------------
            Exponent  Coefficients 
       -------------- ---------------------------------------------------------
  1 S  1.30100000E+01  0.019685
  1 S  1.96200000E+00  0.137977
  1 S  4.44600000E-01  0.478148

  2 S  1.22000000E-01  1.000000

  3 P  7.27000000E-01  1.000000

  F (Fluorine)
  ------------
            Exponent  Coefficients 
       -------------- ---------------------------------------------------------
  1 S  1.47100000E+04  0.000721
  1 S  2.20700000E+03  0.005553
  1 S  5.02800000E+02  0.028267
  1 S  1.42600000E+02  0.106444
  1 S  4.64700000E+01  0.286814
  1 S  1.67000000E+01  0.448641
  1 S  6.35600000E+00  0.264761
  1 S  1.31600000E+00  0.015333

  2 S  1.47100000E+04 -0.000165
  2 S  2.20700000E+03 -0.001308
  2 S  5.02800000E+02 -0.006495
  2 S  1.42600000E+02 -0.026691
  2 S  4.64700000E+01 -0.073690
  2 S  1.67000000E+01 -0.170776
  2 S  6.35600000E+00 -0.112327
  2 S  1.31600000E+00  0.562814

  3 S  3.89700000E-01  1.000000

  4 P  2.26700000E+01  0.044878
  4 P  4.97700000E+00  0.235718
  4 P  1.34700000E+00  0.508521

  5 P  3.47100000E-01  1.000000

  6 D  1.64000000E+00  1.000000



 Summary of "ao basis" -> "" (spherical)
 ------------------------------------------------------------------------------
       Tag                 Description            Shells   Functions and Types
 ---------------- ------------------------------  ------  ---------------------
 H                          cc-pvdz                  3        5   2s1p
 F                          cc-pvdz                  6       14   3s2p1d



 Setting fock-build task_bf   :      -1
                    maxquartet:   10000
                    maxeri    :  129600
                    maxscr    :       0
                    intacc    : 0.0D+00
                    denscreen : T
                    dentol    : 1.0D-06

                                 NWChem SCF Module
                                 -----------------



  ao basis        = "ao basis"
  functions       =    19
  atoms           =     2
  closed shells   =     5
  open shells     =     0
  charge          =   0.00
  wavefunction    = RHF 
  input vectors   = atomic
  output vectors  = ./tce_hf_2.292.movecs
  use symmetry    = F
  symmetry adapt  = F


 Summary of "ao basis" -> "ao basis" (spherical)
 ------------------------------------------------------------------------------
       Tag                 Description            Shells   Functions and Types
 ---------------- ------------------------------  ------  ---------------------
 H                          cc-pvdz                  3        5   2s1p
 F                          cc-pvdz                  6       14   3s2p1d




                         Geometry "geometry" -> "geometry"
                         ---------------------------------

 Output coordinates in angstroms (scale by  1.889725989 to convert to a.u.)

  No.       Tag          Charge          X              Y              Z
 ---- ---------------- ---------- -------------- -------------- --------------
    1 H                    1.0000     0.00000000     0.00000000     2.06280000
    2 F                    9.0000     0.00000000     0.00000000    -0.22920000

      Atomic Mass 
      ----------- 

      H                  1.007825
      F                 18.998400


 Effective nuclear repulsion energy (a.u.)       2.0779211348

            Nuclear Dipole moment (a.u.) 
            ----------------------------
        X                 Y               Z
 ---------------- ---------------- ----------------
     0.0000000000     0.0000000000     0.0000000000


                      Basis "ao basis" -> "ao basis" (spherical)
                      -----
  H (Hydrogen)
  ------------
            Exponent  Coefficients 
       -------------- ---------------------------------------------------------
  1 S  1.30100000E+01  0.019685
  1 S  1.96200000E+00  0.137977
  1 S  4.44600000E-01  0.478148

  2 S  1.22000000E-01  1.000000

  3 P  7.27000000E-01  1.000000

  F (Fluorine)
  ------------
            Exponent  Coefficients 
       -------------- ---------------------------------------------------------
  1 S  1.47100000E+04  0.000721
  1 S  2.20700000E+03  0.005553
  1 S  5.02800000E+02  0.028267
  1 S  1.42600000E+02  0.106444
  1 S  4.64700000E+01  0.286814
  1 S  1.67000000E+01  0.448641
  1 S  6.35600000E+00  0.264761
  1 S  1.31600000E+00  0.015333

  2 S  1.47100000E+04 -0.000165
  2 S  2.20700000E+03 -0.001308
  2 S  5.02800000E+02 -0.006495
  2 S  1.42600000E+02 -0.026691
  2 S  4.64700000E+01 -0.073690
  2 S  1.67000000E+01 -0.170776
  2 S  6.35600000E+00 -0.112327
  2 S  1.31600000E+00  0.562814

  3 S  3.89700000E-01  1.000000

  4 P  2.26700000E+01  0.044878
  4 P  4.97700000E+00  0.235718
  4 P  1.34700000E+00  0.508521

  5 P  3.47100000E-01  1.000000

  6 D  1.64000000E+00  1.000000



    Basis function labels
    ---------------------
       No.  Atm El Type
       ---  --- -- ----
        1    1 H  s          
        2    1 H  s          
        3    1 H  px         
        4    1 H  py         
        5    1 H  pz         
        6    2 F  s          
        7    2 F  s          
        8    2 F  s          
        9    2 F  px         
       10    2 F  py         
       11    2 F  pz         
       12    2 F  px         
       13    2 F  py         
       14    2 F  pz         
       15    2 F  d -2       
       16    2 F  d -1       
       17    2 F  d  0       
       18    2 F  d  1       
       19    2 F  d  2       

 Schwarz integral screening summary 
 ---------------------------------- 

        No. of atom pairs =       3
       No. of shell pairs =      45

 Atomic screening 

   value      no.     value      no.     value      no.     value      no.   
  -------- ------    -------- ------    -------- ------    -------- ------   
  0.00D+00      0    1.00D-13      0    1.00D-12      0    1.00D-11      0
  1.00D-10      0    1.00D-09      0    1.00D-08      0    1.00D-07      0
  1.00D-06      0    1.00D-05      0    1.00D-04      0    1.00D-03      0
  1.00D-02      0    1.00D-01      1    1.00D+00      2    1.00D+01      0


 Shell screening 

   value      no.     value      no.     value      no.     value      no.   
  -------- ------    -------- ------    -------- ------    -------- ------   
  0.00D+00      0    1.00D-13      0    1.00D-12      0    1.00D-11      0
  1.00D-10      0    1.00D-09      0    1.00D-08      0    1.00D-07      0
  1.00D-06      0    1.00D-05      1    1.00D-04      1    1.00D-03      5
  1.00D-02      4    1.00D-01     10    1.00D+00     24    1.00D+01      0



 Forming initial guess at       0.0s


      Superposition of Atomic Density Guess
      -------------------------------------

 Sum of atomic energies:         -99.88314519

      Non-variational initial energy
      ------------------------------

 Total energy =     -99.374833
 1-e energy   =    -143.940765
 2-e energy   =      42.488010
 HOMO         =      -0.578180
 LUMO         =      -0.185554


 Setting fock-build task_bf   :      -1
                    maxquartet:   10000
                    maxeri    :  129600
                    maxscr    :       0
                    intacc    : 0.0D+00
                    denscreen : T
                    dentol    : 1.0D-06


 Wrote molecular orbitals to ./tce_hf_2.292.movecs


 Starting SCF solution at       0.1s

 ready to solve ...                    0


 ----------------------------------------------
         Quadratically convergent ROHF

 Convergence threshold     :          1.000E-10
 Maximum no. of iterations :           30
 Final Fock-matrix accuracy:          1.000E-10
 ----------------------------------------------

   0: nuse=   1(   0.9) avail=   434871Mb (out of   434871Mb) on .

 #quartets = 1.035D+03 #integrals = 4.835D+03 #direct =  0.0% #cached =100.0%


 Integral file          = ./tce_hf_2.292.aoints.0
 Record size in doubles =  65536        No. of integs per rec  =  43688
 Max. records in memory =      2        Max. records in file   = 826254
 No. of bits per label  =      8        No. of bits per value  =     64


 Wrote rohf: cfock to ./tce_hf_2.292.cfock


              iter       energy          gnorm     gmax       time
             ----- ------------------- --------- --------- --------
                 1      -99.5564840401  1.31D+00  6.04D-01      0.1

            ----- linear solve (tol: 1.0E-02 prod-acc: 1.6E-08) -----

               iter nbas    rnorm     rnorm-scal   ratio     time
               ---- ---- ----------- ----------- --------- -------
 rohf_wrap: in g_x =    1              1.30607444
 rohf_wrap: out g_x =    1              0.11120750
                  1    1  6.1719E-16  4.7255E-16    0.0000     0.1

                              ----- Line search ------

        step       energy         lsg     num-lsg   num-lsh   lsrat    time
      ------- ---------------- --------- --------- --------- ------- --------
       0.0000     -99.55648404 -1.35D-01  0.00D+00  0.00D+00 0.0D+00      0.1

 Wrote rohf: cfock to ./tce_hf_2.292.cfock

       1.0000     -99.63211514 -1.47D-02 -1.55D-02  1.20D-01 1.1D-01      0.1

              iter       energy          gnorm     gmax       time
             ----- ------------------- --------- --------- --------
                 2      -99.6321151387  2.78D-01  2.46D-01      0.1

            ----- linear solve (tol: 1.0E-02 prod-acc: 3.3E-09) -----

               iter nbas    rnorm     rnorm-scal   ratio     time
               ---- ---- ----------- ----------- --------- -------
 rohf_wrap: in g_x =    1              0.27827951
 rohf_wrap: out g_x =    1              0.55585828
                  1    1  1.9680E-02  7.0721E-02    0.0000     0.1
 rohf_wrap: in g_x =    1              0.01968025
 rohf_wrap: out g_x =    1              0.00644075
                  2    2  3.5041E-04  1.2592E-03    0.0178     0.1

                              ----- Line search ------

        step       energy         lsg     num-lsg   num-lsh   lsrat    time
      ------- ---------------- --------- --------- --------- ------- --------
       0.0000     -99.63211514 -1.54D-01  0.00D+00  0.00D+00 0.0D+00      0.1

 Wrote rohf: cfock to ./tce_hf_2.292.cfock

       1.0000     -99.43926085  7.24D-01  6.32D-01  8.78D-01 4.7D+00      0.2
                    Energy increase :             0.19285429 backtrack

 Wrote rohf: cfock to ./tce_hf_2.292.cfock

       0.6667     -99.61507959  3.27D-01  3.29D-01  1.19D+00 2.1D+00      0.2
                    Energy increase :             0.01703554 backtrack

 Wrote rohf: cfock to ./tce_hf_2.292.cfock

       0.4444     -99.66015282  8.80D-02  8.34D-02  1.07D+00 5.7D-01      0.2

 Wrote rohf: cfock to ./tce_hf_2.292.cfock

       0.3625     -99.66437043  1.67D-02  1.58D-02  8.70D-01 1.1D-01      0.2

              iter       energy          gnorm     gmax       time
             ----- ------------------- --------- --------- --------
                 3      -99.6643704312  8.38D-01  4.40D-01      0.2

            ----- linear solve (tol: 1.0E-02 prod-acc: 1.0E-08) -----

               iter nbas    rnorm     rnorm-scal   ratio     time
               ---- ---- ----------- ----------- --------- -------
 rohf_wrap: in g_x =    1              0.83827308
 rohf_wrap: out g_x =    1              0.12003810
                  1    1  1.5487E-02  1.8475E-02    0.0000     0.2
 rohf_wrap: in g_x =    1              0.01548701
 rohf_wrap: out g_x =    1              0.00395585
                  2    2  5.5287E-04  6.5953E-04    0.0357     0.2

                              ----- Line search ------

        step       energy         lsg     num-lsg   num-lsh   lsrat    time
      ------- ---------------- --------- --------- --------- ------- --------
       0.0000     -99.66437043 -7.79D-02  0.00D+00  0.00D+00 0.0D+00      0.2

 Wrote rohf: cfock to ./tce_hf_2.292.cfock

       1.0000     -99.70991927 -1.17D-02 -1.25D-02  6.62D-02 1.5D-01      0.2

              iter       energy          gnorm     gmax       time
             ----- ------------------- --------- --------- --------
                 4      -99.7099192711  2.51D-01  1.41D-01      0.2

            ----- linear solve (tol: 1.0E-02 prod-acc: 3.0E-09) -----

               iter nbas    rnorm     rnorm-scal   ratio     time
               ---- ---- ----------- ----------- --------- -------
 rohf_wrap: in g_x =    1              0.25113668
 rohf_wrap: out g_x =    1              0.03635343
                  1    1  7.5362E-03  3.0008E-02    0.0000     0.2
 rohf_wrap: in g_x =    1              0.00753618
 rohf_wrap: out g_x =    1              0.00221264
                  2    2  3.6107E-04  1.4377E-03    0.0479     0.2

                              ----- Line search ------

        step       energy         lsg     num-lsg   num-lsh   lsrat    time
      ------- ---------------- --------- --------- --------- ------- --------
       0.0000     -99.70991927 -7.34D-03  0.00D+00  0.00D+00 0.0D+00      0.2

 Wrote rohf: cfock to ./tce_hf_2.292.cfock

       1.0000     -99.71157290  3.98D-03  4.01D-03  1.13D-02 5.4D-01      0.2

 Wrote rohf: cfock to ./tce_hf_2.292.cfock

       0.6482     -99.71228046  3.30D-05  3.60D-05  1.12D-02 4.5D-03      0.2

              iter       energy          gnorm     gmax       time
             ----- ------------------- --------- --------- --------
                 5      -99.7122804620  8.31D-02  5.75D-02      0.2

            ----- linear solve (tol: 8.3E-02 prod-acc: 8.3E-09) -----

               iter nbas    rnorm     rnorm-scal   ratio     time
               ---- ---- ----------- ----------- --------- -------
 rohf_wrap: in g_x =    1              0.08309694
 rohf_wrap: out g_x =    1              0.03458463
                  1    1  6.4934E-02  7.8143E-01    0.0000     0.2
 rohf_wrap: in g_x =    1              0.06493436
 rohf_wrap: out g_x =    1              0.01520867
                  2    2  7.3421E-03  8.8356E-02    0.1131     0.2
 rohf_wrap: in g_x =    1              0.00734212
 rohf_wrap: out g_x =    1              0.00119061
                  3    3  9.8269E-04  1.1826E-02    0.1338     0.2

                              ----- Line search ------

        step       energy         lsg     num-lsg   num-lsh   lsrat    time
      ------- ---------------- --------- --------- --------- ------- --------
       0.0000     -99.71228046 -2.34D-03  0.00D+00  0.00D+00 0.0D+00      0.2

 Wrote rohf: cfock to ./tce_hf_2.292.cfock

       1.0000     -99.71343360  4.30D-05  3.67D-05  2.38D-03 1.8D-02      0.2

              iter       energy          gnorm     gmax       time
             ----- ------------------- --------- --------- --------
                 6      -99.7134336041  1.88D-03  1.46D-03      0.2

            ----- linear solve (tol: 1.9E-03 prod-acc: 4.2E-12) -----

               iter nbas    rnorm     rnorm-scal   ratio     time
               ---- ---- ----------- ----------- --------- -------
 rohf_wrap: in g_x =    1              0.00187695
 rohf_wrap: out g_x =    1              0.00115948
                  1    1  1.3614E-03  7.2534E-01    0.0000     0.2
 rohf_wrap: in g_x =    1              0.00136142
 rohf_wrap: out g_x =    1              0.00057489
                  2    2  2.8311E-04  1.5084E-01    0.2080     0.2
 rohf_wrap: in g_x =    1              0.00028311
 rohf_wrap: out g_x =    1              0.00009962
                  3    3  7.1693E-05  3.8196E-02    0.2532     0.2
 rohf_wrap: in g_x =    1              0.00007169
 rohf_wrap: out g_x =    1              0.00001006
                  4    4  7.0888E-06  3.7768E-03    0.0989     0.2
 rohf_wrap: in g_x =    1              0.00000709
 rohf_wrap: out g_x =    1              0.00000251
                  5    5  8.0223E-07  4.2741E-04    0.1132     0.2

                              ----- Line search ------

        step       energy         lsg     num-lsg   num-lsh   lsrat    time
      ------- ---------------- --------- --------- --------- ------- --------
       0.0000     -99.71343360 -1.48D-06  0.00D+00  0.00D+00 0.0D+00      0.2

 Wrote rohf: cfock to ./tce_hf_2.292.cfock

       1.0000     -99.71343434 -1.24D-09 -1.03D-09  1.48D-06 8.4D-04      0.2

              iter       energy          gnorm     gmax       time
             ----- ------------------- --------- --------- --------
                 7      -99.7134343442  1.99D-06  1.42D-06      0.2

            ----- linear solve (tol: 5.0E-06 prod-acc: 1.2E-17) -----

               iter nbas    rnorm     rnorm-scal   ratio     time
               ---- ---- ----------- ----------- --------- -------
 rohf_wrap: in g_x =    1              0.00000199
 rohf_wrap: out g_x =    1              0.00000113
                  1    1  1.1258E-06  5.6600E-01    0.0000     0.2
 rohf_wrap: in g_x =    1              0.00000113
 rohf_wrap: out g_x =    1              0.00000046
                  2    2  2.0325E-07  1.0218E-01    0.1805     0.2
 rohf_wrap: in g_x =    1              0.00000020
 rohf_wrap: out g_x =    1              0.00000005
                  3    3  2.2057E-08  1.1089E-02    0.1085     0.2
 rohf_wrap: in g_x =    1              0.00000002
 rohf_wrap: out g_x =    1              0.00000001
                  4    4  3.1450E-09  1.5811E-03    0.1426     0.2
 rohf_wrap: in g_x =    1              0.00000000
 rohf_wrap: out g_x =    1              0.00000000
                  5    5  4.0057E-10  2.0138E-04    0.1274     0.2
 rohf_wrap: in g_x =    1              0.00000000
 rohf_wrap: out g_x =    1              0.00000000
                  6    6  3.1160E-11  1.5665E-05    0.0778     0.2
 rohf_wrap: in g_x =    1              0.00000000
 rohf_wrap: out g_x =    1              0.00000000
                  7    7  3.3419E-12  1.6801E-06    0.1073     0.2

                              ----- Line search ------

        step       energy         lsg     num-lsg   num-lsh   lsrat    time
      ------- ---------------- --------- --------- --------- ------- --------
       0.0000     -99.71343434 -1.29D-12  0.00D+00  0.00D+00 0.0D+00      0.2

 Wrote rohf: cfock to ./tce_hf_2.292.cfock

       1.0000     -99.71343434 -1.13D-18 -9.36D-14  1.29D-12 8.7D-07      0.2

              iter       energy          gnorm     gmax       time
             ----- ------------------- --------- --------- --------
                 8      -99.7134343442  3.68D-12  2.04D-12      0.2

 Wrote molecular orbitals to ./tce_hf_2.292.movecs



       Final RHF  results 
       ------------------ 

         Total SCF energy =    -99.713434344208
      One-electron energy =   -144.971693032127
      Two-electron energy =     43.180337553103
 Nuclear repulsion energy =      2.077921134816

        Time for solution =      0.1s


             Final eigenvalues
             -----------------

              1      
    1  -26.2622
    2   -1.4522
    3   -0.5726
    4   -0.5726
    5   -0.4458
    6   -0.1295
    7    0.5651
    8    1.2742
    9    1.3481
   10    1.3481
   11    1.5002
   12    1.5002
   13    1.6437
   14    1.9176
   15    4.0487
   16    4.0508
   17    4.0508
   18    4.0624
   19    4.0624

                       ROHF Final Molecular Orbital Analysis
                       -------------------------------------

 Vector    1  Occ=2.000000D+00  E=-2.626221D+01
              MO Center=  2.0D-18,  3.0D-19, -2.3D-01, r^2= 1.2D-02
   Bfn.  Coefficient  Atom+Function         Bfn.  Coefficient  Atom+Function  
  ----- ------------  ---------------      ----- ------------  ---------------
     6      1.000406  2 F  s          

 Vector    2  Occ=2.000000D+00  E=-1.452164D+00
              MO Center= -1.6D-16, -8.0D-17, -2.3D-01, r^2= 3.5D-01
   Bfn.  Coefficient  Atom+Function         Bfn.  Coefficient  Atom+Function  
  ----- ------------  ---------------      ----- ------------  ---------------
     8      0.579539  2 F  s                  7      0.500481  2 F  s          

 Vector    3  Occ=2.000000D+00  E=-5.726452D-01
              MO Center=  4.1D-16, -3.6D-17, -2.3D-01, r^2= 4.3D-01
   Bfn.  Coefficient  Atom+Function         Bfn.  Coefficient  Atom+Function  
  ----- ------------  ---------------      ----- ------------  ---------------
     9      0.673235  2 F  px                12      0.477812  2 F  px         

 Vector    4  Occ=2.000000D+00  E=-5.726452D-01
              MO Center=  1.2D-16,  2.2D-16, -2.3D-01, r^2= 4.3D-01
   Bfn.  Coefficient  Atom+Function         Bfn.  Coefficient  Atom+Function  
  ----- ------------  ---------------      ----- ------------  ---------------
    10      0.673235  2 F  py                13      0.477812  2 F  py         

 Vector    5  Occ=2.000000D+00  E=-4.458447D-01
              MO Center= -1.5D-16,  5.3D-17,  4.9D-01, r^2= 1.7D+00
   Bfn.  Coefficient  Atom+Function         Bfn.  Coefficient  Atom+Function  
  ----- ------------  ---------------      ----- ------------  ---------------
    11      0.503477  2 F  pz                14      0.414972  2 F  pz         
     2      0.327049  1 H  s                  1      0.258127  1 H  s          

 Vector    6  Occ=0.000000D+00  E=-1.295264D-01
              MO Center=  2.3D-17,  2.0D-18,  1.4D+00, r^2= 2.0D+00
   Bfn.  Coefficient  Atom+Function         Bfn.  Coefficient  Atom+Function  
  ----- ------------  ---------------      ----- ------------  ---------------
     2      0.511153  1 H  s                  1      0.417514  1 H  s          
    11     -0.372648  2 F  pz                14     -0.335586  2 F  pz         

 Vector    7  Occ=0.000000D+00  E= 5.650683D-01
              MO Center=  4.9D-18, -4.2D-18,  2.1D+00, r^2= 1.8D+00
   Bfn.  Coefficient  Atom+Function         Bfn.  Coefficient  Atom+Function  
  ----- ------------  ---------------      ----- ------------  ---------------
     1      1.293691  1 H  s                  2     -1.270974  1 H  s          

 Vector    8  Occ=0.000000D+00  E= 1.274210D+00
              MO Center=  3.7D-17,  1.7D-17,  1.6D+00, r^2= 1.3D+00
   Bfn.  Coefficient  Atom+Function         Bfn.  Coefficient  Atom+Function  
  ----- ------------  ---------------      ----- ------------  ---------------
     5      0.846401  1 H  pz                11      0.478184  2 F  pz         
    14     -0.440894  2 F  pz                 7      0.168221  2 F  s          
     8     -0.156184  2 F  s          

 Vector    9  Occ=0.000000D+00  E= 1.348149D+00
              MO Center= -6.5D-17,  6.0D-17,  2.0D+00, r^2= 6.6D-01
   Bfn.  Coefficient  Atom+Function         Bfn.  Coefficient  Atom+Function  
  ----- ------------  ---------------      ----- ------------  ---------------
     3      0.716842  1 H  px                 4     -0.671500  1 H  py         

 Vector   10  Occ=0.000000D+00  E= 1.348149D+00
              MO Center= -2.7D-17, -2.9D-17,  2.0D+00, r^2= 6.6D-01
   Bfn.  Coefficient  Atom+Function         Bfn.  Coefficient  Atom+Function  
  ----- ------------  ---------------      ----- ------------  ---------------
     4      0.716842  1 H  py                 3      0.671500  1 H  px         

 Vector   11  Occ=0.000000D+00  E= 1.500224D+00
              MO Center=  1.6D-17, -8.8D-17, -1.5D-01, r^2= 1.1D+00
   Bfn.  Coefficient  Atom+Function         Bfn.  Coefficient  Atom+Function  
  ----- ------------  ---------------      ----- ------------  ---------------
    13      1.014198  2 F  py                10     -0.901241  2 F  py         
     4     -0.185659  1 H  py                12     -0.162200  2 F  px         

 Vector   12  Occ=0.000000D+00  E= 1.500224D+00
              MO Center= -3.2D-16, -5.2D-17, -1.5D-01, r^2= 1.1D+00
   Bfn.  Coefficient  Atom+Function         Bfn.  Coefficient  Atom+Function  
  ----- ------------  ---------------      ----- ------------  ---------------
    12      1.014198  2 F  px                 9     -0.901241  2 F  px         
     3     -0.185659  1 H  px                13      0.162200  2 F  py         

 Vector   13  Occ=0.000000D+00  E= 1.643695D+00
              MO Center=  2.5D-16, -2.0D-16, -3.8D-02, r^2= 1.8D+00
   Bfn.  Coefficient  Atom+Function         Bfn.  Coefficient  Atom+Function  
  ----- ------------  ---------------      ----- ------------  ---------------
    14      0.927000  2 F  pz                11     -0.817606  2 F  pz         
     5      0.476024  1 H  pz                 7      0.419922  2 F  s          
     8     -0.388933  2 F  s                  6      0.166449  2 F  s          

 Vector   14  Occ=0.000000D+00  E= 1.917642D+00
              MO Center= -1.2D-16,  2.9D-16,  9.6D-02, r^2= 1.0D+00
   Bfn.  Coefficient  Atom+Function         Bfn.  Coefficient  Atom+Function  
  ----- ------------  ---------------      ----- ------------  ---------------
     7      1.499574  2 F  s                  8     -1.498180  2 F  s          
     6      0.608057  2 F  s                  2      0.259150  1 H  s          
     5     -0.257104  1 H  pz                14     -0.248444  2 F  pz         
    11      0.191860  2 F  pz         

 Vector   15  Occ=0.000000D+00  E= 4.048713D+00
              MO Center=  5.0D-17, -3.7D-17, -2.3D-01, r^2= 3.0D-01
   Bfn.  Coefficient  Atom+Function         Bfn.  Coefficient  Atom+Function  
  ----- ------------  ---------------      ----- ------------  ---------------
    17      1.000117  2 F  d  0       

 Vector   16  Occ=0.000000D+00  E= 4.050807D+00
              MO Center=  1.0D-17,  5.7D-20, -2.3D-01, r^2= 3.0D-01
   Bfn.  Coefficient  Atom+Function         Bfn.  Coefficient  Atom+Function  
  ----- ------------  ---------------      ----- ------------  ---------------
    16      0.761993  2 F  d -1              18      0.647580  2 F  d  1       

 Vector   17  Occ=0.000000D+00  E= 4.050807D+00
              MO Center=  6.5D-17,  2.8D-18, -2.3D-01, r^2= 3.0D-01
   Bfn.  Coefficient  Atom+Function         Bfn.  Coefficient  Atom+Function  
  ----- ------------  ---------------      ----- ------------  ---------------
    18      0.761993  2 F  d  1              16     -0.647580  2 F  d -1       

 Vector   18  Occ=0.000000D+00  E= 4.062449D+00
              MO Center= -3.6D-16,  2.0D-17, -2.3D-01, r^2= 3.0D-01
   Bfn.  Coefficient  Atom+Function         Bfn.  Coefficient  Atom+Function  
  ----- ------------  ---------------      ----- ------------  ---------------
    19      0.964361  2 F  d  2              15     -0.264589  2 F  d -2       

 Vector   19  Occ=0.000000D+00  E= 4.062449D+00
              MO Center= -8.4D-19, -1.6D-16, -2.3D-01, r^2= 3.0D-01
   Bfn.  Coefficient  Atom+Function         Bfn.  Coefficient  Atom+Function  
  ----- ------------  ---------------      ----- ------------  ---------------
    15      0.964361  2 F  d -2              19      0.264589  2 F  d  2       


 center of mass
 --------------
 x =   0.00000000 y =   0.00000000 z =  -0.21493591

 moments of inertia (a.u.)
 ------------------
          17.954110915706           0.000000000000           0.000000000000
           0.000000000000          17.954110915706           0.000000000000
           0.000000000000           0.000000000000           0.000000000000

  Mulliken analysis of the total density
  --------------------------------------

   Bfn.    Population  Atom+Function
   ---------------------------------
     1      0.263038    1 H  s          
     2      0.395826    1 H  s          
     3      0.000054    1 H  px         
     4      0.000054    1 H  py         
     5      0.002007    1 H  pz         
     6      2.000787    2 F  s          
     7      0.914355    2 F  s          
     8      1.081992    2 F  s          
     9      1.225555    2 F  px         
    10      1.225555    2 F  py         
    11      0.723635    2 F  pz         
    12      0.774383    2 F  px         
    13      0.774383    2 F  py         
    14      0.618251    2 F  pz         
    15      0.000000    2 F  d -2       
    16      0.000008    2 F  d -1       
    17      0.000108    2 F  d  0       
    18      0.000008    2 F  d  1       
    19      0.000000    2 F  d  2       

    Atom       Charge   Shell Charges
 -----------   ------   -------------------------------------------------------
    1 H    1     0.66   0.26  0.40  0.00
    2 F    9     9.34   2.00  0.91  1.08  3.17  2.17  0.00

       Multipole analysis of the density wrt the origin
       ------------------------------------------------

     L   x y z        total         open         nuclear
     -   - - -        -----         ----         -------
     0   0 0 0      0.000000      0.000000     10.000000

     1   1 0 0     -0.000000      0.000000      0.000000
     1   0 1 0     -0.000000      0.000000      0.000000
     1   0 0 1      1.586288      0.000000      0.000000

     2   2 0 0     -4.572913      0.000000      0.000000
     2   1 1 0      0.000000      0.000000      0.000000
     2   1 0 1     -0.000000      0.000000      0.000000
     2   0 2 0     -4.572913      0.000000      0.000000
     2   0 1 1      0.000000      0.000000      0.000000
     2   0 0 2      1.934472      0.000000     16.883769


 Wrote molecular orbitals to ./tce_hf_2.292.movecs


 Parallel integral file used       1 records with       0 large values


 Read molecular orbitals from ./tce_hf_2.292.movecs


 Schwarz integral screening summary 
 ---------------------------------- 

        No. of atom pairs =       3
       No. of shell pairs =      45

 Atomic screening 

   value      no.     value      no.     value      no.     value      no.   
  -------- ------    -------- ------    -------- ------    -------- ------   
  0.00D+00      0    1.00D-13      0    1.00D-12      0    1.00D-11      0
  1.00D-10      0    1.00D-09      0    1.00D-08      0    1.00D-07      0
  1.00D-06      0    1.00D-05      0    1.00D-04      0    1.00D-03      0
  1.00D-02      0    1.00D-01      1    1.00D+00      2    1.00D+01      0


 Shell screening 

   value      no.     value      no.     value      no.     value      no.   
  -------- ------    -------- ------    -------- ------    -------- ------   
  0.00D+00      0    1.00D-13      0    1.00D-12      0    1.00D-11      0
  1.00D-10      0    1.00D-09      0    1.00D-08      0    1.00D-07      0
  1.00D-06      0    1.00D-05      1    1.00D-04      1    1.00D-03      5
  1.00D-02      4    1.00D-01     10    1.00D+00     24    1.00D+01      0


                   NWChem Extensible Many-Electron Theory Module
                   ---------------------------------------------

              ======================================================
                   This portion of the program was automatically
                  generated by a Tensor Contraction Engine (TCE).
                  The development of this portion of the program
                 and TCE was supported by US Department of Energy,
                Office of Science, Office of Basic Energy Science.
                      TCE is a product of Battelle and PNNL.
              Please cite: S.Hirata, J.Phys.Chem.A 107, 9887 (2003).
              ======================================================

            General Information
            -------------------
      Number of processors :     1
         Wavefunction type : Restricted Hartree-Fock
          No. of electrons :    10
           Alpha electrons :     5
            Beta electrons :     5
           No. of orbitals :    38
            Alpha orbitals :    19
             Beta orbitals :    19
        Alpha frozen cores :     0
         Beta frozen cores :     0
     Alpha frozen virtuals :     0
      Beta frozen virtuals :     0
         Spin multiplicity : singlet 
    Number of AO functions :    19
       Number of AO shells :     9
        Use of symmetry is : off
      Symmetry adaption is : off
         Schwarz screening : 0.10D-09

          Correlation Information
          -----------------------
          Calculation type : Coupled-cluster singles & doubles                           
   Perturbative correction : none                                                        
            Max iterations :      100
        Residual threshold : 0.10D-07
     T(0) DIIS level shift : 0.00D+00
     L(0) DIIS level shift : 0.00D+00
     T(1) DIIS level shift : 0.00D+00
     L(1) DIIS level shift : 0.00D+00
     T(R) DIIS level shift : 0.00D+00
     T(I) DIIS level shift : 0.00D+00
   CC-T/L Amplitude update :  5-th order DIIS
                I/O scheme : Global Array Library
        L-threshold :  0.10D-07
        EOM-threshold :  0.10D-07
 no EOMCCSD initial starts read in
 TCE RESTART OPTIONS
 READ_INT:   F
 WRITE_INT:  F
 READ_TA:    F
 WRITE_TA:   F
 READ_XA:    F
 WRITE_XA:   F
 READ_IN3:   F
 WRITE_IN3:  F
 SLICE:      F
 D4D5:       F
 quantumc:   F
 qrotation:  F
 qducc:      T
 nacto:                         0
 nrotv:                         0
 nrot:                          0

            Memory Information
            ------------------
          Available GA space size is     402652823 doubles
          Available MA space size is     402651564 doubles

 Maximum block size        32 doubles

 tile_dim =     14

 Block   Spin    Irrep     Size     Offset   Alpha
 -------------------------------------------------
   1    alpha     a      5 doubles       0       1
   2    beta      a      5 doubles       5       1
   3    alpha     a     14 doubles      10       3
   4    beta      a     14 doubles      24       3

 Global array virtual files algorithm will be used

 Parallel file system coherency ......... OK

 Setting fock-build task_bf   :      -1
                    maxquartet:   10000
                    maxeri    :  129600
                    maxscr    :       0
                    intacc    : 0.0D+00
                    denscreen : T
                    dentol    : 1.0D-06

   0: nuse=   1(   0.9) avail=   434871Mb (out of   434871Mb) on .

 #quartets = 1.035D+03 #integrals = 4.835D+03 #direct =  0.0% #cached =100.0%


 Integral file          = ./tce_hf_2.292.aoints.0
 Record size in doubles =  65536        No. of integs per rec  =  43688
 Max. records in memory =      2        Max. records in file   = 826254
 No. of bits per label  =      8        No. of bits per value  =     64


 Fock matrix recomputed
 1-e file size   =              361
 1-e file name   = ./tce_hf_2.292.f1
 Cpu & wall time / sec            0.0            0.0
 4-electron integrals stored in orbital form

 v2    file size   =            64311
 4-index algorithm nr.  13 is used
 imaxsize =       30
 imaxsize ichop =        0
 Cpu & wall time / sec            0.1            0.1
 T1-number-of-tasks                    1

 t1 file size   =               70
 t1 file name   = ./tce_hf_2.292.t1
 t1 file handle =       -998
 T2-number-of-boxes                    2

 t2 file size   =             9800
 t2 file name   = ./tce_hf_2.292.t2
 t2 file handle =       -996

 CCSD iterations
 -----------------------------------------------------------------
 Iter          Residuum       Correlation     Cpu    Wall    V2*C2
 -----------------------------------------------------------------
    1   0.2145341098160  -0.2714677169152     0.0     0.0     0.0
    2   0.0858530096980  -0.2839538499849     0.0     0.0     0.0
    3   0.0889889105526  -0.2850076943258     0.0     0.0     0.0
    4   0.0682170823301  -0.3066659844987     0.0     0.0     0.0
    5   0.0857146781405  -0.2915658952683     0.0     0.0     0.0
 MICROCYCLE DIIS UPDATE:                    5                    5
    6   0.0051071157738  -0.3061018132044     0.0     0.0     0.0
    7   0.0022934401220  -0.3063576406321     0.0     0.0     0.0
    8   0.0010470008702  -0.3065038599404     0.0     0.0     0.0
    9   0.0007264881392  -0.3065519605391     0.0     0.0     0.0
   10   0.0003336834615  -0.3066591924470     0.0     0.0     0.0
 MICROCYCLE DIIS UPDATE:                   10                    5
   11   0.0001169313224  -0.3066698519128     0.0     0.0     0.0
   12   0.0000642165528  -0.3066809575478     0.0     0.0     0.0
   13   0.0000342408431  -0.3066931391411     0.0     0.0     0.0
   14   0.0000409965515  -0.3066895849585     0.0     0.0     0.0
   15   0.0000367394281  -0.3067002746632     0.0     0.0     0.0
 MICROCYCLE DIIS UPDATE:                   15                    5
   16   0.0000030598102  -0.3066979404391     0.0     0.0     0.0
   17   0.0000017244871  -0.3066977193869     0.0     0.0     0.0
   18   0.0000008325828  -0.3066980183132     0.0     0.0     0.0
   19   0.0000011470123  -0.3066978230392     0.0     0.0     0.0
   20   0.0000010607787  -0.3066981151436     0.0     0.0     0.0
 MICROCYCLE DIIS UPDATE:                   20                    5
   21   0.0000000927529  -0.3066979940738     0.0     0.0     0.0
   22   0.0000000483523  -0.3066979985112     0.0     0.0     0.0
   23   0.0000000247721  -0.3066980079070     0.0     0.0     0.0
   24   0.0000000237091  -0.3066980071215     0.0     0.0     0.0
   25   0.0000000174852  -0.3066980129238     0.0     0.0     0.0
 MICROCYCLE DIIS UPDATE:                   25                    5
   26   0.0000000024552  -0.3066980127275     0.0     0.0     0.0
 -----------------------------------------------------------------
 Iterations converged
 CCSD correlation energy / hartree =        -0.306698012727486
 CCSD total energy / hartree       =      -100.020132356934994

 Singles contributions
     6a   (alpha) ---     5a   (alpha)        0.2035969429

 Doubles contributions
     6a   (alpha)     6a   (beta ) ---     5a   (alpha)     5a   (beta )       -0.6145191567
 Ground state specification:
 exp(T)|Ref>~(1+T)|Ref>
 ------- a(p)+/a(q) strings ----------

 singles norm

 doubles norm

 Reference string
  0.82745366692548028      :(1a)+ (2a)+ (3a)+ (4a)+ (5a)+ (1b)+ (2b)+ (3b)+ (4b)+ (5b)+ |0>

 Singles strings
  0.16846703697183299      :(6a)+ (5a)  (1a)+ (2a)+ (3a)+ (4a)+ (5a)+ (1b)+ (2b)+ (3b)+ (4b)+ (5b)+ |0>
  0.16846703697183299      :(6b)+ (5b)  (1a)+ (2a)+ (3a)+ (4a)+ (5a)+ (1b)+ (2b)+ (3b)+ (4b)+ (5b)+ |0>

 Doubles strings
 -0.50848612960378614      :(6a)+ (6b)+ (5b)  (5a)  (1a)+ (2a)+ (3a)+ (4a)+ (5a)+ (1b)+ (2b)+ (3b)+ (4b)+ (5b)+ |0>
 -------------------------------------
 enrep_tce =    2.0779211348155693     
  EHF(total)         =       -99.71343434
  Shift (HFtot-HFA)  =         0.00000000
 ALL OCCUPIED ORBITALS ARE ACTIVE IN DUCC --> NO SHIFT
 Number of active orbitals                   10
 Number of active alpha electrons                    5
 Number of active beta electrons                    5
  nos                    10
  nvs                    28
 noas                     5
 nobs                     5
 nvas                    14
 nvbs                    14
 nactv                     5
 From DUCC CCSD corr. ene. -0.30669801272763375     
 From DUCC CCSD corr. ene.-e-part  0.17617319339966633     
 begin_one_electron_integrals
    1    1       -40.6482150094
    1    2         0.7585143784
    1    5        -0.0286490022
    1    6        -0.0348320193
    1    7         0.0546949673
    1    8         0.0741870395
    2    1         0.7585143784
    2    2        -9.1571238592
    2    5         0.1516836955
    2    6         0.2208496132
    2    7        -0.2171256584
    2    8        -0.2453514511
    3    3        -8.2749954822
    3    9         0.3216588557
    3   10         0.2701381894
    4    4        -8.2749954822
    4    9        -0.2701381894
    4   10         0.3216588557
    5    1        -0.0286490022
    5    2         0.1516836955
    5    5        -6.3344866057
    5    6         2.3742873179
    5    7        -0.2542372976
    5    8        -0.9236915696
    6    1        -0.0348320193
    6    2         0.2208496132
    6    5         2.3742873179
    6    6        -4.3214722865
    6    7         0.0545917912
    6    8         1.2084909291
    7    1         0.0546949673
    7    2        -0.2171256584
    7    5        -0.2542372976
    7    6         0.0545917912
    7    7        -1.8010530359
    7    8        -0.2023100171
    8    1         0.0741870395
    8    2        -0.2453514511
    8    5        -0.9236915696
    8    6         1.2084909291
    8    7        -0.2023100171
    8    8        -2.5950124622
    9    3         0.3216588557
    9    4        -0.2701381894
    9    9        -1.2925434527
   10    3         0.2701381894
   10    4         0.3216588557
   10   10        -1.2925434527
 end_one_electron_integrals
 begin_two_electron_integrals
    1    1    1    1        5.3568404707
    2    1    1    1       -0.5438473111
    2    2    1    1        1.2904268485
    2    1    2    1        0.0875305350
    2    2    2    1       -0.0250716047
    2    2    2    2        0.8986624161
    3    3    1    1        1.2422536591
    3    3    2    1       -0.0168370880
    3    3    2    2        0.8701667027
    3    1    3    1        0.0376488040
    3    2    3    1        0.0407685150
    3    2    3    2        0.1694987611
    3    3    3    3        0.8964597015
    4    4    1    1        1.2422536591
    4    4    2    1       -0.0168370880
    4    4    2    2        0.8701667027
    4    4    3    3        0.8134017848
    4    1    4    1        0.0376488040
    4    2    4    1        0.0407685150
    4    2    4    2        0.1694987611
    4    3    4    3        0.0393119833
    4    4    4    4        0.8964597015
    5    1    1    1        0.0225292348
    5    2    1    1       -0.0351719226
    5    5    1    1        0.8830018726
    5    1    2    1       -0.0037300023
    5    1    2    2        0.0010258587
    5    2    2    1        0.0011215059
    5    2    2    2       -0.0187792503
    5    5    2    1       -0.0102523984
    5    5    2    2        0.6503639779
    5    1    3    3        0.0006808780
    5    2    3    3       -0.0183922863
    5    3    3    1       -0.0015224594
    5    3    3    2       -0.0051267898
    5    5    3    3        0.6097875518
    5    1    4    4        0.0006808780
    5    2    4    4       -0.0183922863
    5    4    4    1       -0.0015224594
    5    4    4    2       -0.0051267898
    5    5    4    4        0.6097875518
    5    1    5    1        0.0233603271
    5    2    5    1        0.0253337031
    5    2    5    2        0.1119121759
    5    3    5    3        0.0255208306
    5    4    5    4        0.0255208306
    5    5    5    1       -0.0002104229
    5    5    5    2       -0.0035496209
    5    5    5    5        0.5564153549
    6    1    1    1        0.0263855496
    6    2    1    1       -0.0386415990
    6    5    1    1       -0.4030914846
    6    6    1    1        0.5472124263
    6    1    2    1       -0.0043533474
    6    1    2    2        0.0010848514
    6    2    2    1        0.0010315905
    6    2    2    2       -0.0226956079
    6    5    2    1        0.0039153940
    6    5    2    2       -0.2767057017
    6    6    2    1       -0.0051442256
    6    6    2    2        0.4336332947
    6    1    3    3        0.0006304925
    6    2    3    3       -0.0223932161
    6    3    3    1       -0.0018214354
    6    3    3    2       -0.0064596215
    6    5    3    3       -0.2538545345
    6    6    3    3        0.4153303660
    6    1    4    4        0.0006304925
    6    2    4    4       -0.0223932161
    6    4    4    1       -0.0018214354
    6    4    4    2       -0.0064596215
    6    5    4    4       -0.2538545345
    6    6    4    4        0.4153303660
    6    1    5    1       -0.0169690935
    6    1    5    2       -0.0190643749
    6    1    5    5        0.0010497940
    6    2    5    1       -0.0176608210
    6    2    5    2       -0.0779035644
    6    2    5    5       -0.0129530077
    6    3    5    3       -0.0210785237
    6    4    5    4       -0.0210785237
    6    5    5    1        0.0004067337
    6    5    5    2        0.0209222198
    6    5    5    5       -0.1441664972
    6    6    5    1        0.0028906297
    6    6    5    2        0.0171236361
    6    6    5    5        0.4483610865
    6    1    6    1        0.0129201175
    6    2    6    1        0.0133840972
    6    2    6    2        0.0589892225
    6    3    6    3        0.0193121354
    6    4    6    4        0.0193121354
    6    5    6    1       -0.0004607088
    6    5    6    2        0.0058217891
    6    5    6    5        0.2062448109
    6    6    6    1       -0.0016270509
    6    6    6    2       -0.0134897821
    6    6    6    5        0.0120963882
    6    6    6    6        0.4646455398
    7    1    1    1       -0.0419960801
    7    2    1    1        0.0470823452
    7    5    1    1        0.0397179774
    7    6    1    1       -0.0260376869
    7    7    1    1        0.2256173725
    7    1    2    1        0.0070755570
    7    1    2    2       -0.0016934005
    7    2    2    1       -0.0015208861
    7    2    2    2        0.0242858950
    7    5    2    1       -0.0005680818
    7    5    2    2        0.0249529768
    7    6    2    1        0.0006718738
    7    6    2    2       -0.0113450755
    7    7    2    1       -0.0002213194
    7    7    2    2        0.2222348437
    7    1    3    3       -0.0010064370
    7    2    3    3        0.0241201331
    7    3    3    1        0.0024480430
    7    3    3    2        0.0068165924
    7    5    3    3        0.0228006935
    7    6    3    3       -0.0106136700
    7    7    3    3        0.2190975755
    7    1    4    4       -0.0010064370
    7    2    4    4        0.0241201331
    7    4    4    1        0.0024480430
    7    4    4    2        0.0068165924
    7    5    4    4        0.0228006935
    7    6    4    4       -0.0106136700
    7    7    4    4        0.2190975755
    7    1    5    1        0.0017571216
    7    1    5    2        0.0022805133
    7    1    5    5       -0.0007381258
    7    2    5    1        0.0019913972
    7    2    5    2        0.0057939287
    7    2    5    5        0.0137559041
    7    3    5    3        0.0011942146
    7    4    5    4        0.0011942146
    7    5    5    1        0.0011385843
    7    5    5    2        0.0019718261
    7    5    5    5        0.0418598297
    7    6    5    1       -0.0007079972
    7    6    5    2        0.0043405046
    7    6    5    5        0.0376079238
    7    7    5    1        0.0021373389
    7    7    5    2        0.0267076519
    7    7    5    5        0.3191405368
    7    1    6    1       -0.0018447753
    7    1    6    2       -0.0014824472
    7    1    6    5        0.0001928452
    7    1    6    6       -0.0001062732
    7    2    6    1       -0.0013929448
    7    2    6    2       -0.0063783612
    7    2    6    5       -0.0091920634
    7    2    6    6        0.0094458296
    7    3    6    3       -0.0020278371
    7    4    6    4       -0.0020278371
    7    5    6    1       -0.0009531626
    7    5    6    2       -0.0016262962
    7    5    6    5        0.0257578045
    7    5    6    6        0.0691692125
    7    6    6    1        0.0004533050
    7    6    6    2        0.0028252498
    7    6    6    5        0.0710827486
    7    6    6    6        0.0979169724
    7    7    6    1       -0.0014246502
    7    7    6    2       -0.0070063953
    7    7    6    5        0.1366338684
    7    7    6    6        0.4320732350
    7    1    7    1        0.0007538539
    7    2    7    1        0.0000722362
    7    2    7    2        0.0025141761
    7    3    7    3        0.0013041342
    7    4    7    4        0.0013041342
    7    5    7    1        0.0000520053
    7    5    7    2        0.0025966823
    7    5    7    5        0.0386890558
    7    6    7    1       -0.0000079688
    7    6    7    2        0.0010067723
    7    6    7    5        0.0578336753
    7    6    7    6        0.0951387090
    7    7    7    1        0.0001523819
    7    7    7    2        0.0027612964
    7    7    7    5        0.0846189673
    7    7    7    6        0.1433125878
    7    7    7    7        0.5093181674
    8    1    1    1       -0.0573270940
    8    2    1    1        0.0581388089
    8    5    1    1        0.2161695686
    8    6    1    1       -0.2272577951
    8    7    1    1        0.0364062180
    8    8    1    1        0.4777492303
    8    1    2    1        0.0095523708
    8    1    2    2       -0.0023148934
    8    2    2    1       -0.0022800982
    8    2    2    2        0.0250289900
    8    5    2    1       -0.0060715625
    8    5    2    2        0.0887224301
    8    6    2    1        0.0055154526
    8    6    2    2       -0.1217041924
    8    7    2    1       -0.0008546598
    8    7    2    2        0.0209640209
    8    8    2    1       -0.0061608999
    8    8    2    2        0.3703020021
    8    1    3    3       -0.0014215671
    8    2    3    3        0.0244302661
    8    3    3    1        0.0029753695
    8    3    3    2        0.0062387958
    8    5    3    3        0.0813888440
    8    6    3    3       -0.1141961411
    8    7    3    3        0.0200002142
    8    8    3    3        0.3579164558
    8    1    4    4       -0.0014215671
    8    2    4    4        0.0244302661
    8    4    4    1        0.0029753695
    8    4    4    2        0.0062387958
    8    5    4    4        0.0813888440
    8    6    4    4       -0.1141961411
    8    7    4    4        0.0200002142
    8    8    4    4        0.3579164558
    8    1    5    1        0.0182478702
    8    1    5    2        0.0185121109
    8    1    5    5       -0.0015267916
    8    2    5    1        0.0111571490
    8    2    5    2        0.0263509670
    8    2    5    5        0.0088799760
    8    3    5    3        0.0065790530
    8    4    5    4        0.0065790530
    8    5    5    1        0.0008259145
    8    5    5    2       -0.0106952699
    8    5    5    5        0.0368349516
    8    6    5    1       -0.0025170650
    8    6    5    2       -0.0064957132
    8    6    5    5       -0.0845131735
    8    7    5    1        0.0012657181
    8    7    5    2        0.0038462507
    8    7    5    5        0.0093536116
    8    8    5    1        0.0050942902
    8    8    5    2        0.0356307467
    8    8    5    5        0.4322894973
    8    1    6    1       -0.0143292544
    8    1    6    2       -0.0127646163
    8    1    6    5        0.0006500809
    8    1    6    6        0.0013835197
    8    2    6    1       -0.0086486550
    8    2    6    2       -0.0275046454
    8    2    6    5       -0.0132265371
    8    2    6    6        0.0054291705
    8    3    6    3       -0.0097457058
    8    4    6    4       -0.0097457058
    8    5    6    1       -0.0002836234
    8    5    6    2       -0.0019737512
    8    5    6    5       -0.0595161249
    8    5    6    6        0.0279325993
    8    6    6    1        0.0013436372
    8    6    6    2        0.0101550247
    8    6    6    5        0.0659339254
    8    6    6    6       -0.0209483641
    8    7    6    1       -0.0008158451
    8    7    6    2       -0.0043231846
    8    7    6    5       -0.0120727773
    8    7    6    6        0.0052704978
    8    8    6    1       -0.0030570214
    8    8    6    2       -0.0183152991
    8    8    6    5        0.0767592693
    8    8    6    6        0.4916254712
    8    1    7    1        0.0023460372
    8    1    7    2        0.0012056081
    8    1    7    5        0.0008212327
    8    1    7    6       -0.0004396417
    8    1    7    7        0.0013958344
    8    2    7    1        0.0007704887
    8    2    7    2        0.0039138504
    8    2    7    5        0.0023416111
    8    2    7    6       -0.0048609081
    8    2    7    7       -0.0054333853
    8    3    7    3        0.0014816322
    8    4    7    4        0.0014816322
    8    5    7    1       -0.0003757067
    8    5    7    2        0.0064303006
    8    5    7    5       -0.0052365345
    8    5    7    6       -0.0138359078
    8    5    7    7       -0.0176708842
    8    6    7    1        0.0001894739
    8    6    7    2       -0.0056257200
    8    6    7    5       -0.0032213076
    8    6    7    6        0.0074127378
    8    6    7    7        0.0135178755
    8    7    7    1        0.0000418257
    8    7    7    2        0.0005853787
    8    7    7    5       -0.0030259627
    8    7    7    6       -0.0032060941
    8    7    7    7       -0.0064311582
    8    8    7    1       -0.0000295962
    8    8    7    2        0.0071377711
    8    8    7    5        0.0805453280
    8    8    7    6        0.1271420527
    8    8    7    7        0.4807058005
    8    1    8    1        0.0160541200
    8    2    8    1        0.0082853562
    8    2    8    2        0.0204003677
    8    3    8    3        0.0077742245
    8    4    8    4        0.0077742245
    8    5    8    1       -0.0000608071
    8    5    8    2        0.0120505601
    8    5    8    5        0.0628983056
    8    6    8    1       -0.0010786086
    8    6    8    2       -0.0057901500
    8    6    8    5        0.0173695745
    8    6    8    6        0.0872821760
    8    7    8    1        0.0007843194
    8    7    8    2        0.0030391694
    8    7    8    5        0.0259349110
    8    7    8    6        0.0288169626
    8    7    8    7        0.0299888226
    8    8    8    1        0.0027475579
    8    8    8    2        0.0001282322
    8    8    8    5       -0.0082720148
    8    8    8    6       -0.0139625131
    8    8    8    7       -0.0015439425
    8    8    8    8        0.5971046826
    9    3    1    1       -0.0732799175
    9    4    1    1        0.0615425438
    9    9    1    1        0.2557160554
    9    3    2    1        0.0019285679
    9    3    2    2       -0.0325026465
    9    4    2    1       -0.0016196658
    9    4    2    2        0.0272966403
    9    9    2    1       -0.0007241308
    9    9    2    2        0.2437239524
    9    1    3    1       -0.0065536766
    9    1    3    2       -0.0062818674
    9    2    3    1       -0.0036149164
    9    2    3    2       -0.0084362722
    9    3    3    3       -0.0350955583
    9    4    3    3        0.0252076587
    9    5    3    1        0.0004313072
    9    5    3    2        0.0028475013
    9    6    3    1        0.0004710852
    9    6    3    2        0.0036842419
    9    7    3    1       -0.0003589993
    9    7    3    2       -0.0013440853
    9    8    3    1       -0.0005966586
    9    8    3    2       -0.0030403964
    9    9    3    3        0.2403423953
    9    1    4    1        0.0055039627
    9    1    4    2        0.0052756896
    9    2    4    1        0.0030359088
    9    2    4    2        0.0070850196
    9    3    4    3        0.0020714682
    9    3    4    4       -0.0300152551
    9    4    4    3       -0.0026137654
    9    4    4    4        0.0294742409
    9    5    4    1       -0.0003622240
    9    5    4    2       -0.0023914120
    9    6    4    1       -0.0003956306
    9    6    4    2       -0.0030941304
    9    7    4    1        0.0003014977
    9    7    4    2        0.0011288008
    9    8    4    1        0.0005010908
    9    8    4    2        0.0025534108
    9    9    4    3       -0.0012628645
    9    9    4    4        0.2398992670
    9    1    5    3        0.0002496114
    9    1    5    4       -0.0002096307
    9    2    5    3        0.0006785314
    9    2    5    4       -0.0005698498
    9    3    5    1       -0.0000548933
    9    3    5    2        0.0018062354
    9    3    5    5       -0.0168157244
    9    4    5    1        0.0000461010
    9    4    5    2       -0.0015169275
    9    4    5    5        0.0141223201
    9    5    5    3        0.0002790166
    9    5    5    4       -0.0002343260
    9    6    5    3        0.0023616824
    9    6    5    4       -0.0019834075
    9    7    5    3        0.0000558149
    9    7    5    4       -0.0000468750
    9    8    5    3       -0.0023963187
    9    8    5    4        0.0020124961
    9    9    5    1        0.0021417958
    9    9    5    2        0.0298416962
    9    9    5    5        0.3653198949
    9    1    6    3        0.0002779750
    9    1    6    4       -0.0002334513
    9    2    6    3        0.0004696936
    9    2    6    4       -0.0003944619
    9    3    6    1       -0.0000976224
    9    3    6    2        0.0012132240
    9    3    6    5        0.0144904262
    9    3    6    6       -0.0091133429
    9    4    6    1        0.0000819861
    9    4    6    2       -0.0010188997
    9    4    6    5       -0.0121694690
    9    4    6    6        0.0076536427
    9    5    6    3        0.0025255400
    9    5    6    4       -0.0021210198
    9    6    6    3       -0.0012673013
    9    6    6    4        0.0010643154
    9    7    6    3        0.0003028686
    9    7    6    4       -0.0002543576
    9    8    6    3        0.0016441158
    9    8    6    4       -0.0013807749
    9    9    6    1       -0.0013822069
    9    9    6    2       -0.0065301903
    9    9    6    5        0.1723572272
    9    9    6    6        0.5069156144
    9    1    7    3       -0.0004062365
    9    1    7    4        0.0003411689
    9    2    7    3       -0.0012695734
    9    2    7    4        0.0010662236
    9    3    7    1        0.0001198661
    9    3    7    2       -0.0025115833
    9    3    7    5       -0.0004450547
    9    3    7    6        0.0020144716
    9    3    7    7        0.0014389365
    9    4    7    1       -0.0001006670
    9    4    7    2        0.0021092986
    9    4    7    5        0.0003737695
    9    4    7    6       -0.0016918101
    9    4    7    7       -0.0012084595
    9    5    7    3       -0.0001367277
    9    5    7    4        0.0001148278
    9    6    7    3       -0.0001766610
    9    6    7    4        0.0001483649
    9    7    7    3        0.0000784559
    9    7    7    4       -0.0000658895
    9    8    7    3        0.0001078943
    9    8    7    4       -0.0000906127
    9    9    7    1        0.0001185954
    9    9    7    2        0.0034311474
    9    9    7    5        0.0975539445
    9    9    7    6        0.1644554582
    9    9    7    7        0.5479595843
    9    1    8    3       -0.0004957462
    9    1    8    4        0.0004163416
    9    2    8    3       -0.0013156615
    9    2    8    4        0.0011049297
    9    3    8    1        0.0001857642
    9    3    8    2       -0.0027047809
    9    3    8    5       -0.0089973191
    9    3    8    6        0.0073036183
    9    3    8    7       -0.0009071275
    9    3    8    8       -0.0047553258
    9    4    8    1       -0.0001560100
    9    4    8    2        0.0022715514
    9    4    8    5        0.0075562026
    9    4    8    6       -0.0061337849
    9    4    8    7        0.0007618313
    9    4    8    8        0.0039936569
    9    5    8    3       -0.0024345022
    9    5    8    4        0.0020445637
    9    6    8    3        0.0006143668
    9    6    8    4       -0.0005159626
    9    7    8    3       -0.0001482721
    9    7    8    4        0.0001245231
    9    8    8    3       -0.0000896357
    9    8    8    4        0.0000752786
    9    9    8    1        0.0013272862
    9    9    8    2       -0.0068439941
    9    9    8    5       -0.0227009735
    9    9    8    6        0.0157897405
    9    9    8    7       -0.0066077851
    9    9    8    8        0.5743660266
    9    1    9    1        0.0018871101
    9    2    9    1        0.0010219203
    9    2    9    2        0.0027383652
    9    3    9    3        0.0056421980
    9    4    9    3       -0.0037272284
    9    4    9    4        0.0043343455
    9    5    9    1       -0.0001110126
    9    5    9    2        0.0017505868
    9    5    9    5        0.0370557765
    9    6    9    1       -0.0001050456
    9    6    9    2        0.0025369186
    9    6    9    5        0.0544786059
    9    6    9    6        0.0841341024
    9    7    9    1        0.0000934982
    9    7    9    2        0.0013521481
    9    7    9    5        0.0300113964
    9    7    9    6        0.0464384298
    9    7    9    7        0.0380421872
    9    8    9    1        0.0001468170
    9    8    9    2       -0.0003629850
    9    8    9    5       -0.0014598190
    9    8    9    6        0.0024836903
    9    8    9    7       -0.0000838599
    9    8    9    8        0.0354339281
    9    9    9    3        0.0018034778
    9    9    9    4       -0.0015146116
    9    9    9    9        0.7493071741
   10    3    1    1       -0.0615425438
   10    4    1    1       -0.0732799175
   10   10    1    1        0.2557160554
   10    3    2    1        0.0016196658
   10    3    2    2       -0.0272966403
   10    4    2    1        0.0019285679
   10    4    2    2       -0.0325026465
   10   10    2    1       -0.0007241308
   10   10    2    2        0.2437239524
   10    1    3    1       -0.0055039627
   10    1    3    2       -0.0052756896
   10    2    3    1       -0.0030359088
   10    2    3    2       -0.0070850196
   10    3    3    3       -0.0294742409
   10    4    3    3       -0.0300152551
   10    5    3    1        0.0003622240
   10    5    3    2        0.0023914120
   10    6    3    1        0.0003956306
   10    6    3    2        0.0030941304
   10    7    3    1       -0.0003014977
   10    7    3    2       -0.0011288008
   10    8    3    1       -0.0005010908
   10    8    3    2       -0.0025534108
   10    9    3    3        0.0012628645
   10   10    3    3        0.2398992670
   10    1    4    1       -0.0065536766
   10    1    4    2       -0.0062818674
   10    2    4    1       -0.0036149164
   10    2    4    2       -0.0084362722
   10    3    4    3       -0.0024665379
   10    3    4    4       -0.0252076587
   10    4    4    3       -0.0021951139
   10    4    4    4       -0.0350955583
   10    5    4    1        0.0004313072
   10    5    4    2        0.0028475013
   10    6    4    1        0.0004710852
   10    6    4    2        0.0036842419
   10    7    4    1       -0.0003589993
   10    7    4    2       -0.0013440853
   10    8    4    1       -0.0005966586
   10    8    4    2       -0.0030403964
   10    9    4    3        0.0002184378
   10    9    4    4       -0.0012628645
   10   10    4    3        0.0012628645
   10   10    4    4        0.2403423953
   10    1    5    3        0.0002096307
   10    1    5    4        0.0002496114
   10    2    5    3        0.0005698498
   10    2    5    4        0.0006785314
   10    3    5    1       -0.0000461010
   10    3    5    2        0.0015169275
   10    3    5    5       -0.0141223201
   10    4    5    1       -0.0000548933
   10    4    5    2        0.0018062354
   10    4    5    5       -0.0168157244
   10    5    5    3        0.0002343260
   10    5    5    4        0.0002790166
   10    6    5    3        0.0019834075
   10    6    5    4        0.0023616824
   10    7    5    3        0.0000468750
   10    7    5    4        0.0000558149
   10    8    5    3       -0.0020124961
   10    8    5    4       -0.0023963187
   10   10    5    1        0.0021417958
   10   10    5    2        0.0298416962
   10   10    5    5        0.3653198949
   10    1    6    3        0.0002334513
   10    1    6    4        0.0002779750
   10    2    6    3        0.0003944619
   10    2    6    4        0.0004696936
   10    3    6    1       -0.0000819861
   10    3    6    2        0.0010188997
   10    3    6    5        0.0121694690
   10    3    6    6       -0.0076536427
   10    4    6    1       -0.0000976224
   10    4    6    2        0.0012132240
   10    4    6    5        0.0144904262
   10    4    6    6       -0.0091133429
   10    5    6    3        0.0021210198
   10    5    6    4        0.0025255400
   10    6    6    3       -0.0010643154
   10    6    6    4       -0.0012673013
   10    7    6    3        0.0002543576
   10    7    6    4        0.0003028686
   10    8    6    3        0.0013807749
   10    8    6    4        0.0016441158
   10   10    6    1       -0.0013822069
   10   10    6    2       -0.0065301903
   10   10    6    5        0.1723572272
   10   10    6    6        0.5069156144
   10    1    7    3       -0.0003411689
   10    1    7    4       -0.0004062365
   10    2    7    3       -0.0010662236
   10    2    7    4       -0.0012695734
   10    3    7    1        0.0001006670
   10    3    7    2       -0.0021092986
   10    3    7    5       -0.0003737695
   10    3    7    6        0.0016918101
   10    3    7    7        0.0012084595
   10    4    7    1        0.0001198661
   10    4    7    2       -0.0025115833
   10    4    7    5       -0.0004450547
   10    4    7    6        0.0020144716
   10    4    7    7        0.0014389365
   10    5    7    3       -0.0001148278
   10    5    7    4       -0.0001367277
   10    6    7    3       -0.0001483649
   10    6    7    4       -0.0001766610
   10    7    7    3        0.0000658895
   10    7    7    4        0.0000784559
   10    8    7    3        0.0000906127
   10    8    7    4        0.0001078943
   10   10    7    1        0.0001185954
   10   10    7    2        0.0034311474
   10   10    7    5        0.0975539445
   10   10    7    6        0.1644554582
   10   10    7    7        0.5479595843
   10    1    8    3       -0.0004163416
   10    1    8    4       -0.0004957462
   10    2    8    3       -0.0011049297
   10    2    8    4       -0.0013156615
   10    3    8    1        0.0001560100
   10    3    8    2       -0.0022715514
   10    3    8    5       -0.0075562026
   10    3    8    6        0.0061337849
   10    3    8    7       -0.0007618313
   10    3    8    8       -0.0039936569
   10    4    8    1        0.0001857642
   10    4    8    2       -0.0027047809
   10    4    8    5       -0.0089973191
   10    4    8    6        0.0073036183
   10    4    8    7       -0.0009071275
   10    4    8    8       -0.0047553258
   10    5    8    3       -0.0020445637
   10    5    8    4       -0.0024345022
   10    6    8    3        0.0005159626
   10    6    8    4        0.0006143668
   10    7    8    3       -0.0001245231
   10    7    8    4       -0.0001482721
   10    8    8    3       -0.0000752786
   10    8    8    4       -0.0000896357
   10   10    8    1        0.0013272862
   10   10    8    2       -0.0068439941
   10   10    8    5       -0.0227009735
   10   10    8    6        0.0157897405
   10   10    8    7       -0.0066077851
   10   10    8    8        0.5743660266
   10    3    9    3        0.0037272284
   10    3    9    4       -0.0016437065
   10    3    9    9        0.0011796575
   10    4    9    3        0.0029515590
   10    4    9    4       -0.0037272284
   10    4    9    9        0.0014046414
   10    9    9    3        0.0001630436
   10    9    9    4        0.0001941392
   10   10    9    3        0.0014046414
   10   10    9    4       -0.0011796575
   10   10    9    9        0.6593727072
   10    1   10    1        0.0018871101
   10    2   10    1        0.0010219203
   10    2   10    2        0.0027383652
   10    3   10    3        0.0043343455
   10    4   10    3        0.0037272284
   10    4   10    4        0.0056421980
   10    5   10    1       -0.0001110126
   10    5   10    2        0.0017505868
   10    5   10    5        0.0370557765
   10    6   10    1       -0.0001050456
   10    6   10    2        0.0025369186
   10    6   10    5        0.0544786059
   10    6   10    6        0.0841341024
   10    7   10    1        0.0000934982
   10    7   10    2        0.0013521481
   10    7   10    5        0.0300113964
   10    7   10    6        0.0464384298
   10    7   10    7        0.0380421872
   10    8   10    1        0.0001468170
   10    8   10    2       -0.0003629850
   10    8   10    5       -0.0014598190
   10    8   10    6        0.0024836903
   10    8   10    7       -0.0000838599
   10    8   10    8        0.0354339281
   10    9   10    3        0.0002046972
   10    9   10    4       -0.0001719105
   10    9   10    9        0.0449672335
   10   10   10    3        0.0015146116
   10   10   10    4        0.0018034778
   10   10   10   10        0.7493071741
 end_two_electron_integrals
 fcidump
      5.3568404707     1   1   1   1
     -0.5438473111     2   1   1   1
      0.0875305350     2   1   2   1
      1.2904268485     2   2   1   1
     -0.0250716047     2   2   2   1
      0.8986624161     2   2   2   2
      0.0376488040     3   1   3   1
      0.0407685150     3   2   3   1
      0.1694987611     3   2   3   2
      1.2422536591     3   3   1   1
     -0.0168370880     3   3   2   1
      0.8701667027     3   3   2   2
      0.8964597015     3   3   3   3
      0.0376488040     4   1   4   1
      0.0407685150     4   2   4   1
      0.1694987611     4   2   4   2
      0.0393119833     4   3   4   3
      1.2422536591     4   4   1   1
     -0.0168370880     4   4   2   1
      0.8701667027     4   4   2   2
      0.8134017848     4   4   3   3
      0.8964597015     4   4   4   4
      0.0225292348     5   1   1   1
     -0.0037300023     5   1   2   1
      0.0010258587     5   1   2   2
      0.0006808780     5   1   3   3
      0.0006808780     5   1   4   4
      0.0233603271     5   1   5   1
     -0.0351719226     5   2   1   1
      0.0011215059     5   2   2   1
     -0.0187792503     5   2   2   2
     -0.0183922863     5   2   3   3
     -0.0183922863     5   2   4   4
      0.0253337031     5   2   5   1
      0.1119121759     5   2   5   2
     -0.0015224594     5   3   3   1
     -0.0051267898     5   3   3   2
      0.0255208306     5   3   5   3
     -0.0015224594     5   4   4   1
     -0.0051267898     5   4   4   2
      0.0255208306     5   4   5   4
      0.8830018726     5   5   1   1
     -0.0102523984     5   5   2   1
      0.6503639779     5   5   2   2
      0.6097875518     5   5   3   3
      0.6097875518     5   5   4   4
     -0.0002104229     5   5   5   1
     -0.0035496209     5   5   5   2
      0.5564153549     5   5   5   5
      0.0263855496     6   1   1   1
     -0.0043533474     6   1   2   1
      0.0010848514     6   1   2   2
      0.0006304925     6   1   3   3
      0.0006304925     6   1   4   4
     -0.0169690935     6   1   5   1
     -0.0190643749     6   1   5   2
      0.0010497940     6   1   5   5
      0.0129201175     6   1   6   1
     -0.0386415990     6   2   1   1
      0.0010315905     6   2   2   1
     -0.0226956079     6   2   2   2
     -0.0223932161     6   2   3   3
     -0.0223932161     6   2   4   4
     -0.0176608210     6   2   5   1
     -0.0779035644     6   2   5   2
     -0.0129530077     6   2   5   5
      0.0133840972     6   2   6   1
      0.0589892225     6   2   6   2
     -0.0018214354     6   3   3   1
     -0.0064596215     6   3   3   2
     -0.0210785237     6   3   5   3
      0.0193121354     6   3   6   3
     -0.0018214354     6   4   4   1
     -0.0064596215     6   4   4   2
     -0.0210785237     6   4   5   4
      0.0193121354     6   4   6   4
     -0.4030914846     6   5   1   1
      0.0039153940     6   5   2   1
     -0.2767057017     6   5   2   2
     -0.2538545345     6   5   3   3
     -0.2538545345     6   5   4   4
      0.0004067337     6   5   5   1
      0.0209222198     6   5   5   2
     -0.1441664972     6   5   5   5
     -0.0004607088     6   5   6   1
      0.0058217891     6   5   6   2
      0.2062448109     6   5   6   5
      0.5472124263     6   6   1   1
     -0.0051442256     6   6   2   1
      0.4336332947     6   6   2   2
      0.4153303660     6   6   3   3
      0.4153303660     6   6   4   4
      0.0028906297     6   6   5   1
      0.0171236361     6   6   5   2
      0.4483610865     6   6   5   5
     -0.0016270509     6   6   6   1
     -0.0134897821     6   6   6   2
      0.0120963882     6   6   6   5
      0.4646455398     6   6   6   6
     -0.0419960801     7   1   1   1
      0.0070755570     7   1   2   1
     -0.0016934005     7   1   2   2
     -0.0010064370     7   1   3   3
     -0.0010064370     7   1   4   4
      0.0017571216     7   1   5   1
      0.0022805133     7   1   5   2
     -0.0007381258     7   1   5   5
     -0.0018447753     7   1   6   1
     -0.0014824472     7   1   6   2
      0.0001928452     7   1   6   5
     -0.0001062732     7   1   6   6
      0.0007538539     7   1   7   1
      0.0470823452     7   2   1   1
     -0.0015208861     7   2   2   1
      0.0242858950     7   2   2   2
      0.0241201331     7   2   3   3
      0.0241201331     7   2   4   4
      0.0019913972     7   2   5   1
      0.0057939287     7   2   5   2
      0.0137559041     7   2   5   5
     -0.0013929448     7   2   6   1
     -0.0063783612     7   2   6   2
     -0.0091920634     7   2   6   5
      0.0094458296     7   2   6   6
      0.0000722362     7   2   7   1
      0.0025141761     7   2   7   2
      0.0024480430     7   3   3   1
      0.0068165924     7   3   3   2
      0.0011942146     7   3   5   3
     -0.0020278371     7   3   6   3
      0.0013041342     7   3   7   3
      0.0024480430     7   4   4   1
      0.0068165924     7   4   4   2
      0.0011942146     7   4   5   4
     -0.0020278371     7   4   6   4
      0.0013041342     7   4   7   4
      0.0397179774     7   5   1   1
     -0.0005680818     7   5   2   1
      0.0249529768     7   5   2   2
      0.0228006935     7   5   3   3
[...]
 tce:printtol                          double[1]      Tue Jul 30 17:29:09 2019 
 tce:restart_ccsd_t                       int[1]      Tue Jul 30 17:29:09 2019 
 scf:nclosed                              int[1]      Tue Jul 30 17:29:09 2019 
 geometry:geometry:atomct              double[2]      Tue Jul 30 17:29:09 2019 
 scf:nmo                                  int[1]      Tue Jul 30 17:29:09 2019 
 tce:nroots_restart                       int[1]      Tue Jul 30 17:29:09 2019 
 tce:leftresp                         logical[1]      Tue Jul 30 17:29:09 2019 
 :print                                  char[5]      Tue Jul 30 17:29:09 2019 
 task:theory                             char[4]      Tue Jul 30 17:29:09 2019 
 tce:skip_l                           logical[1]      Tue Jul 30 17:29:09 2019 
 tce:maxs                                 int[1]      Tue Jul 30 17:29:09 2019 
 task:cputime                          double[1]      Tue Jul 30 17:29:20 2019 
 task:walltime                         double[1]      Tue Jul 30 17:29:20 2019 
 tce:ioalg                                int[1]      Tue Jul 30 17:29:09 2019 
 tce:bfreq                             double[1]      Tue Jul 30 17:29:09 2019 
 tce:damp                              double[1]      Tue Jul 30 17:29:09 2019 
 geometry:geometry:efield              double[3]      Tue Jul 30 17:29:09 2019 
 tce:fragment                             int[1]      Tue Jul 30 17:29:09 2019 
 tce:multipole                            int[1]      Tue Jul 30 17:29:09 2019 
 geometry:geometry:use_primitive        logical[1]      Tue Jul 30 17:29:09 2019 
 tce:save_lr                          logical[8]      Tue Jul 30 17:29:09 2019 
 tce:skip_lr                          logical[1]      Tue Jul 30 17:29:09 2019 
 tce:reference                            int[1]      Tue Jul 30 17:29:09 2019 
 tce:restart_ignore_failure           logical[4]      Tue Jul 30 17:29:09 2019 
 tce:guess_lr_real                    logical[1]      Tue Jul 30 17:29:09 2019 
 basis:ao basis:tags info                 int[280]    Tue Jul 30 17:29:09 2019 
 tce:skip_t                           logical[1]      Tue Jul 30 17:29:09 2019 
 tce:hbard                                int[1]      Tue Jul 30 17:29:09 2019 
 tce:diagnt1                          logical[1]      Tue Jul 30 17:29:09 2019 
 tce:read_integrals                   logical[5]      Tue Jul 30 17:29:09 2019 
 tce:bnumfreq                             int[1]      Tue Jul 30 17:29:09 2019 
 tce:ccsdvar                             char[5]      Tue Jul 30 17:29:09 2019 
 tce:lineresp                         logical[1]      Tue Jul 30 17:29:09 2019 
 tce:save_l                           logical[4]      Tue Jul 30 17:29:09 2019 
 tce:ichopx                               int[1]      Tue Jul 30 17:29:09 2019 
 tce:nogamma                          logical[1]      Tue Jul 30 17:29:09 2019 
 scf:dipole                            double[3]      Tue Jul 30 17:29:09 2019 
 geometry:ngeom                           int[1]      Tue Jul 30 17:29:09 2019 
 tce:uact                                 int[1]      Tue Jul 30 17:29:09 2019 
 tce:save_tr                          logical[8]      Tue Jul 30 17:29:09 2019 
 geometry:geometry:operators           double[2304]   Tue Jul 30 17:29:09 2019 
 tce:zlshiftl                          double[1]      Tue Jul 30 17:29:09 2019 
 tce:skip_tr                          logical[1]      Tue Jul 30 17:29:09 2019 
 basis:ao basis:star nr tags              int[1]      Tue Jul 30 17:29:09 2019 
 tce:anumfreq                             int[1]      Tue Jul 30 17:29:09 2019 
 tce:save_t                           logical[4]      Tue Jul 30 17:29:09 2019 
 geometry:geometry:recip vectors         double[3]      Tue Jul 30 17:29:09 2019 
 tce:model                               char[5]      Tue Jul 30 17:29:09 2019 
 tce:maxiter                              int[1]      Tue Jul 30 17:29:09 2019 
 tce:symmetry                         logical[1]      Tue Jul 30 17:29:09 2019 
 tce:save_x                           logical[4]      Tue Jul 30 17:29:09 2019 
 geometry:geometry:no. unique centers            int[1]      Tue Jul 30 17:29:09 2019 
 basis:ao basis:contraction info            int[90000]  Tue Jul 30 17:29:09 2019 
 tce:save_y                           logical[4]      Tue Jul 30 17:29:09 2019 
 basis:ao basis:bs_nr_tags                int[1]      Tue Jul 30 17:29:09 2019 
 geometry:geometry:group number            int[1]      Tue Jul 30 17:29:09 2019 
 tce:nactv                                int[1]      Tue Jul 30 17:29:09 2019 
 tce:active_va                            int[1]      Tue Jul 30 17:29:09 2019 
 geometry:geometry:recip angles         double[3]      Tue Jul 30 17:29:09 2019 
 tce:active_vb                            int[1]      Tue Jul 30 17:29:09 2019 
 tce:active_oa                            int[1]      Tue Jul 30 17:29:09 2019 
 tce:active_ob                            int[1]      Tue Jul 30 17:29:09 2019 
 tce:thresh                            double[1]      Tue Jul 30 17:29:09 2019 
 geometry:geometry:system type            int[1]      Tue Jul 30 17:29:09 2019 
 tce:energy                            double[1]      Tue Jul 30 17:29:20 2019 
 tce:nopolar                          logical[1]      Tue Jul 30 17:29:09 2019 
 basis:ao basis:bs_stdname               char[16]     Tue Jul 30 17:29:09 2019 
 geometry:geometry:charges             double[2]      Tue Jul 30 17:29:09 2019 
 tce:respaxis                         logical[3]      Tue Jul 30 17:29:09 2019 
 tce:perturbative                        char[5]      Tue Jul 30 17:29:09 2019 
 scf:multiplicity                        char[8]      Tue Jul 30 17:29:09 2019 
 scf:output vectors                      char[22]     Tue Jul 30 17:29:09 2019 
 basis:ao basis:header                    int[7]      Tue Jul 30 17:29:09 2019 
 geometry:geometry:tags                  char[4]      Tue Jul 30 17:29:09 2019 
 scf:input vectors                       char[22]     Tue Jul 30 17:29:09 2019 
 geometry:geometry:include_bqbq        logical[1]      Tue Jul 30 17:29:09 2019 
 tce:qducc                            logical[1]      Tue Jul 30 17:29:09 2019 
 geometry:geometry:group name            char[3]      Tue Jul 30 17:29:09 2019 
 tce:model2e                             char[6]      Tue Jul 30 17:29:09 2019 
 tce:eactmax                           double[1]      Tue Jul 30 17:29:09 2019 
 tce:zlshift2                          double[2]      Tue Jul 30 17:29:09 2019 
 tce:eactmin                           double[1]      Tue Jul 30 17:29:09 2019 
 basisprint:ao basis                  logical[1]      Tue Jul 30 17:29:09 2019 
 tce:oact                                 int[1]      Tue Jul 30 17:29:09 2019 
 tce:zlshift3                          double[2]      Tue Jul 30 17:29:09 2019 
 tce:densmat                          logical[1]      Tue Jul 30 17:29:09 2019 
 tce:nroots                               int[1]      Tue Jul 30 17:29:09 2019 
 scf:converged                        logical[1]      Tue Jul 30 17:29:09 2019 
 scf:nelec                                int[1]      Tue Jul 30 17:29:09 2019 
 tce:maxdiff                           double[1]      Tue Jul 30 17:29:09 2019 
 tce:guess_qr_real                    logical[1]      Tue Jul 30 17:29:09 2019 
 basis:ao basis:number of exps and coeffs            int[1]      Tue Jul 30 17:29:09 2019 
 geometry:names                          char[9]      Tue Jul 30 17:29:09 2019 
 geometry:geometry:masses              double[2]      Tue Jul 30 17:29:09 2019 
 tce:zlshift                           double[1]      Tue Jul 30 17:29:09 2019 
 tce:eoms                                 int[1]      Tue Jul 30 17:29:09 2019 
 tce:ampnorms                         logical[1]      Tue Jul 30 17:29:09 2019 
 scf:scftype                             char[4]      Tue Jul 30 17:29:09 2019 
 tce:diis2                                int[1]      Tue Jul 30 17:29:09 2019 
 tce:read_l                           logical[4]      Tue Jul 30 17:29:09 2019 
 tce:enegr                             double[1]      Tue Jul 30 17:29:20 2019 
 basis:ao basis:exps and coeffs         double[54]     Tue Jul 30 17:29:09 2019 
 tce:diis3                                int[1]      Tue Jul 30 17:29:09 2019 
 geometry:geometry:unique centers            int[2]      Tue Jul 30 17:29:09 2019 
 tce:read_lr                          logical[8]      Tue Jul 30 17:29:09 2019 
 geometry:geometry:amatrix             double[9]      Tue Jul 30 17:29:09 2019 
 geometry:geometry:inv nuc expon         double[2]      Tue Jul 30 17:29:09 2019 
 geometry:geometry:vel                 double[6]      Tue Jul 30 17:29:09 2019 
 task:status                          logical[1]      Tue Jul 30 17:29:20 2019 
 geometry:geometry:direct volume         double[1]      Tue Jul 30 17:29:09 2019 
 tce:afreq                             double[1]      Tue Jul 30 17:29:09 2019 
 geometry:geometry:num_operators            int[1]      Tue Jul 30 17:29:09 2019 
 tce:read_t                           logical[4]      Tue Jul 30 17:29:09 2019 
 tce:save_interval                        int[1]      Tue Jul 30 17:29:09 2019 
 basis:nbasis                             int[1]      Tue Jul 30 17:29:09 2019 
 file_prefix                             char[13]     Tue Jul 30 17:29:09 2019 
 geometry:geometry:primitive_center           char[2]      Tue Jul 30 17:29:09 2019 
 task:energy                           double[1]      Tue Jul 30 17:29:20 2019 
 geometry:geometry:ncenter                int[1]      Tue Jul 30 17:29:09 2019 
 tce:idiskx                               int[1]      Tue Jul 30 17:29:09 2019 
 tce:damp2                             double[1]      Tue Jul 30 17:29:09 2019 
 tce:quadresp                         logical[1]      Tue Jul 30 17:29:09 2019 
 tce:damp3                             double[1]      Tue Jul 30 17:29:09 2019 
 scf:thresh                            double[1]      Tue Jul 30 17:29:09 2019 
 scf:energy                            double[1]      Tue Jul 30 17:29:09 2019 
 tce:read_tr                          logical[8]      Tue Jul 30 17:29:09 2019 
 tce:read_x                           logical[4]      Tue Jul 30 17:29:09 2019 
 basis:ao basis:assoc ecp name           char[4]      Tue Jul 30 17:29:09 2019 
 tce:read_y                           logical[4]      Tue Jul 30 17:29:09 2019 
 geometry:geometry:zmt_source            char[2]      Tue Jul 30 17:29:09 2019 
 geometry:geometry:setting number            int[1]      Tue Jul 30 17:29:09 2019 
 tce:act_excit_lvl                        int[1]      Tue Jul 30 17:29:09 2019 
 basis:ao basis:bs_tags                  char[4]      Tue Jul 30 17:29:09 2019 
 tce:i4im                                 int[1]      Tue Jul 30 17:29:09 2019 
 scf:tol2e                             double[1]      Tue Jul 30 17:29:09 2019 
 tce:diis                                 int[1]      Tue Jul 30 17:29:09 2019 
 tce:recompf                          logical[1]      Tue Jul 30 17:29:09 2019 
 rtdb:stored:state                    logical[3]      Tue Jul 30 17:29:09 2019 
 scf:alpha irreps                         int[19]     Tue Jul 30 17:29:09 2019 
 tce:module                              char[4]      Tue Jul 30 17:29:09 2019 
 tce:target                               int[1]      Tue Jul 30 17:29:09 2019 
 tce:left                             logical[1]      Tue Jul 30 17:29:09 2019 


 HDBM usage statistics
 ---------------------
 Reads         = 1737
 Inserts       = 928
 Replaces      = 320
 Extracts      = 0
 Deletes       = 1842
 Reuses        = 16

 Memory allocs = 8521
 Memory frees  = 8521
 Memory max    = 1512931
 Memory in use = 0

 IO seeks      = 3448
 IO reads      = 2499
 IO writes     = 2803
 IO nread      = 3035072
 IO nwrite     = 2275894

 Summary of allocated global arrays
-----------------------------------
  No active global arrays



                         GA Statistics for process    0
                         ------------------------------

       create   destroy   get      put      acc     scatter   gather  read&inc
calls: 3278     3278     1.02e+04 3978     5858        0        0     6985     
number of processes/call 8.90e+14 -1.65e+15 1.98e+13 0.00e+00 0.00e+00
bytes total:             2.98e+08 1.49e+07 7.24e+07 0.00e+00 0.00e+00 5.59e+04
bytes remote:            0.00e+00 0.00e+00 0.00e+00 0.00e+00 0.00e+00 0.00e+00
Max memory consumed for GA by this process: 1663800 bytes

MA_summarize_allocated_blocks: starting scan ...
MA_summarize_allocated_blocks: scan completed: 0 heap blocks, 0 stack blocks
MA usage statistics:

	allocation statistics:
					      heap	     stack
					      ----	     -----
	current number of blocks	         0	         0
	maximum number of blocks	        17	        40
	current total bytes		         0	         0
	maximum total bytes		   1060368	  55520424
	maximum total K-bytes		      1061	     55521
	maximum total M-bytes		         2	        56

	calls per routine:
		        39  MA_alloc_get
		        39  MA_allocate_heap
		       191  MA_chop_stack
		        39  MA_free_heap
		         0  MA_free_heap_piece
		     24612  MA_get_index
		         5  MA_get_mbase
		         0  MA_get_next_memhandle
		         0  MA_get_numalign
		        57  MA_get_pointer
		         1  MA_init
		         0  MA_initialized
		         0  MA_init_memhandle_iterator
		       337  MA_inquire_avail
		         1  MA_inquire_heap
		         0  MA_inquire_heap_check_stack
		         0  MA_inquire_heap_no_partition
		         1  MA_inquire_stack
		         0  MA_inquire_stack_check_heap
		         0  MA_inquire_stack_no_partition
		     24351  MA_pop_stack
		         1  MA_print_stats
		     24573  MA_push_get
		     24630  MA_push_stack
		         3  MA_set_auto_verify
		         1  MA_set_error_print
		         3  MA_set_hard_fail
		         1  MA_set_numalign
		      9079  MA_sizeof
		        29  MA_sizeof_overhead
		         1  MA_summarize_allocated_blocks
		         0  MA_trace
		     83362  MA_verify_allocator_stuff


                                     CITATION
                                     --------
                Please cite the following reference when publishing
                           results obtained with NWChem:

                 M. Valiev, E.J. Bylaska, N. Govind, K. Kowalski,
              T.P. Straatsma, H.J.J. van Dam, D. Wang, J. Nieplocha,
                        E. Apra, T.L. Windus, W.A. de Jong
                 "NWChem: a comprehensive and scalable open-source
                  solution for large scale molecular simulations"
                      Comput. Phys. Commun. 181, 1477 (2010)
                           doi:10.1016/j.cpc.2010.04.018

                                      AUTHORS
                                      -------
          E. Apra, E. J. Bylaska, W. A. de Jong, N. Govind, K. Kowalski,
       T. P. Straatsma, M. Valiev, H. J. J. van Dam, D. Wang, T. L. Windus,
        J. Hammond, J. Autschbach, K. Bhaskaran-Nair, J. Brabec, K. Lopata,
    S. A. Fischer, S. Krishnamoorthy, M. Jacquelin, W. Ma, M. Klemm, O. Villa,
      Y. Chen, V. Anisimov, F. Aquino, S. Hirata, M. T. Hackler, V. Konjkov,
            D. Mejia-Rodriguez, T. Risthaus, M. Malagoli, A. Marenich,
   A. Otero-de-la-Roza, J. Mullin, P. Nichols, R. Peverati, J. Pittner, Y. Zhao,
        P.-D. Fan, A. Fonari, M. J. Williamson, R. J. Harrison, J. R. Rehr,
      M. Dupuis, D. Silverstein, D. M. A. Smith, J. Nieplocha, V. Tipparaju,
    M. Krishnan, B. E. Van Kuiken, A. Vazquez-Mayagoitia, L. Jensen, M. Swart,
      Q. Wu, T. Van Voorhis, A. A. Auer, M. Nooijen, L. D. Crosby, E. Brown,
      G. Cisneros, G. I. Fann, H. Fruchtl, J. Garza, K. Hirao, R. A. Kendall,
      J. A. Nichols, K. Tsemekhman, K. Wolinski, J. Anchell, D. E. Bernholdt,
      P. Borowski, T. Clark, D. Clerc, H. Dachsel, M. J. O. Deegan, K. Dyall,
    D. Elwood, E. Glendening, M. Gutowski, A. C. Hess, J. Jaffe, B. G. Johnson,
     J. Ju, R. Kobayashi, R. Kutteh, Z. Lin, R. Littlefield, X. Long, B. Meng,
      T. Nakajima, S. Niu, L. Pollack, M. Rosing, K. Glaesemann, G. Sandrone,
      M. Stave, H. Taylor, G. Thomas, J. H. van Lenthe, A. T. Wong, Z. Zhang.

                                    REFERENCES
                                    ----------

          Where appropriate, please cite the following reference(s) 
          when publishing results obtained with NWChem:


     1. D. E. Bernholdt, E. Apra, H. A. Fruchtl, M.F. Guest, R. J. Harrison, 
        R. A. Kendall, R. A. Kutteh, X. Long, J. B. Nicholas, J. A. Nichols, 
        H. L. Taylor, A. T. Wong, G. I. Fann, R. J. Littlefield and
        J. Nieplocha,
        "Parallel Computational Chemistry Made Easier: 
        The Development of NWChem,"
        Int. J. Quantum Chem. Symposium  29, 475-483 (1995).


     2. M. F. Guest, E. Apra, D. E. Bernholdt, H. A. Fruchtl, R. J. Harrison, 
        R. A. Kendall, R. A. Kutteh, X. Long, J. B. Nicholas, J. A. Nichols, 
        H. L. Taylor, A. T. Wong, G. I. Fann, R. J. Littlefield and
        J. Nieplocha,
        "High Performance Computational Chemistry: NWChem and Fully Distributed
        Parallel Applications", in Advances in Parallel Computing, 10, High
        Performance Computing: Technology, Methods, and Applications, Eds. 
        J. Dongarra, L. Gradinetti, G. Joubert, and J. Kowalik, 
        (Elsevier Science B. V. pp. 395-427, 1995).


     3. M. F. Guest, E. Apra, D. E. Bernholdt, H. A. Fruchtl, R. J. Harrison, 
        R. A. Kendall, R. A. Kutteh, J. B. Nicholas, J. A. Nichols, M. S. Stave,
        A. T. Wong, R. J. Littlefield and J. Nieplocha, "High Performance 
        Computational Chemistry: Towards Fully Distributed Parallel Algorithms",
        in High Performance Computing: Symposium 1995, Grand Challenges in 
        Computer Simulation, Adrian M. Tentner, Editor, Proceedings of the 1995 
        Simulation Multiconference, April 9-13, 1995, Phoenix, Arizona, 
        Simulation Councils, Inc., The Society for Computer Simulation, 
        San Diego, CA, 1995. pp. 511-521.


     4. M. F. Guest, E. Apra, D. E. Bernholdt, H. A. Fruchtl, R. J. Harrison,
        R. A. Kendall, R. A. Kutteh, X. Long, J. B. Nicholas, J. A. Nichols, 
        H. L. Taylor, A. T. Wong, G. I. Fann, R. J. Littlefield and
        J. Nieplocha,
        "Advances in Parallel Distributed Data Software; Computational Chemistry
        and NWChem", in Applied Parallel Computing.  Computations in Physics,
        Chemistry, and Engineering Science, Eds. J. Wasnieski, J. Dongarra, and 
        K. Madsen, Lecture Notes in Computer Science, 1041,
        (Springer-Verlag, Berlin, 278-294, 1996).


     5. M. F. Guest, E. Apra, D. E. Bernholdt, H. A. Fruchtl, R. J. Harrison,
        R. A. Kendall, R. A. Kutteh, X. Long, J. B. Nicholas, J. A. Nichols, 
        H. L. Taylor, A. T. Wong, G. I. Fann, R. J. Littlefield and
        J. Nieplocha, 
        "High-Performance Computing in Chemistry; NWChem", Future 
        Generations Computer Systems  12(4), 273, (1996).


     6. R. A. Kendall, E. Apra, D. E. Bernholdt, E. J. Bylaska, M. Dupuis,
        G. I. Fann, R. J. Harrison, J. Ju, J. A. Nichols, J. Nieplocha,
        T. P. Straatsma, T. L. Windus, A. T. Wong,
        Computer Phys. Comm. 128, 260 (2000).


     7. T. P. Straatsma and V. Helms, in Molecular Dynamics on Parallel
        Computers2000, R. Esser et al. editors, p 70.


     8.  T. P. Straatsma, M. Philippopoulos and J. A. McCammon,
         Computer Phys. Comm. 128, 377 (2000).


     9.  M. Valiev, E. J. Bylaska, A. Gramada, and J. H. Weare,
         Reviews in Modern Quantum Chemistry, pages 1684-1734
         (World Scientific, Singapore, 2002).


    10.  E. J. Bylaska, M. Valiev, R. Kawai, and J. H. Weare,
         Computer Phys. Comm. 143, 11 (2002).


    11.  M. Valiev and J. H. Weare,
         J. Phys. Chem. A, 103, 10588 (1999).



 Total times  cpu:       11.2s     wall:       11.2s
