 argument  1 = originalHF.nw
  NWChem w/ OpenMP: maximum threads =    4



============================== echo of input deck ==============================
start tce_hf_0.6876

echo
memory total 6 gb
print high

geometry units angstrom
symmetry c1
H  0.0000000  0.0000  0.6876
F  0.0000000  0.0000  0.00000
end


basis spherical
H library cc-pvdz
F library cc-pvdz
end

scf
thresh 1.0e-10
tol2e 1.0e-10
singlet
rhf
end

tce
2eorb
2emet 13
thresh 1.0d-8
ccsd
end

set tce:qducc T
set tce:nactv 5

task tce energy

================================================================================


                                         
                                         


              Northwest Computational Chemistry Package (NWChem) 6.8
              ------------------------------------------------------


                    Environmental Molecular Sciences Laboratory
                       Pacific Northwest National Laboratory
                                Richland, WA 99352

                              Copyright (c) 1994-2018
                       Pacific Northwest National Laboratory
                            Battelle Memorial Institute

             NWChem is an open-source computational chemistry package
                        distributed under the terms of the
                      Educational Community License (ECL) 2.0
             A copy of the license is included with this distribution
                              in the LICENSE.TXT file

                                  ACKNOWLEDGMENT
                                  --------------

            This software and its documentation were developed at the
            EMSL at Pacific Northwest National Laboratory, a multiprogram
            national laboratory, operated for the U.S. Department of Energy
            by Battelle under Contract Number DE-AC05-76RL01830. Support
            for this work was provided by the Department of Energy Office
            of Biological and Environmental Research, Office of Basic
            Energy Sciences, and the Office of Advanced Scientific Computing.


           Job information
           ---------------

    hostname        = WE27583
    program         = /Users/lamm799/nwchem/bin/MACX64/nwchem
    date            = Tue Jul 30 17:20:18 2019

    compiled        = Mon_Jul_15_13:12:43_2019
    source          = /Users/lamm799/nwchem
    nwchem branch   = Development
    nwchem revision = nwchem_on_git-975-g459e4567d
    ga revision     = 5.7.0
    use scalapack   = F
    input           = originalHF.nw
    prefix          = tce_hf_0.6876.
    data base       = ./tce_hf_0.6876.db
    status          = startup
    nproc           =        1
    time left       =     -1s



           Memory information
           ------------------

    heap     =  201326588 doubles =   1536.0 Mbytes
    stack    =  201326593 doubles =   1536.0 Mbytes
    global   =  402653184 doubles =   3072.0 Mbytes (distinct from heap & stack)
    total    =  805306365 doubles =   6144.0 Mbytes
    verify   = yes
    hardfail = no 


           Directory information
           ---------------------

  0 permanent = .
  0 scratch   = .




                                NWChem Input Module
                                -------------------



 Scaling coordinates for geometry "geometry" by  1.889725989
 (inverse scale =  0.529177249)

 Turning off AUTOSYM since
 SYMMETRY directive was detected!

     MOLECULAR POINT GROUP NUMBER =  1     SCHOENFLIES SYMBOL = C1        

                --------------- GROUP GENERATORS ---------------

                      1 GENERATORS USED TO FORM THE GROUP

                         PT fold Rotoinversion Operator
                     1.000000  0.000000  0.000000  0.000000
                     0.000000  1.000000  0.000000  0.000000
                     0.000000  0.000000  1.000000  0.000000


The   1 symmetry operators (excl. E) are as follows:



                    ---------- FULL LISTING OF GROUP ----------

                  MATRIX REPRESENTATIONS OF THE GROUP OPERATORS

     EXCLUDING THE IDENTITY OPERATOR THERE ARE  1 OPERATORS IN THIS GROUP

                         pt fold Rotoinversion Operator
                     1.000000  0.000000  0.000000  0.000000
                     0.000000  1.000000  0.000000  0.000000
                     0.000000  0.000000  1.000000  0.000000


                  <<< SYMMETRY OPERATION/ATOM MAPPING BUILT >>>
      Symmetry information
      --------------------

 Group name             C1        
 Group number              1
 Group order               1
 No. of unique centers     2



                  Character table for group C1      

                  1e     
        a          1.000

      Symmetry unique atoms

     1    2

      Mapping of centers


      Group operations



          ------
          auto-z
          ------
  no constraints, skipping    0.0000000000000000     
 Imposing constraints:   iter = 1  dqmax = 0.0D+00
  no constraints, skipping    0.0000000000000000     


                             Geometry "geometry" -> ""
                             -------------------------

 Output coordinates in angstroms (scale by  1.889725989 to convert to a.u.)

  No.       Tag          Charge          X              Y              Z
 ---- ---------------- ---------- -------------- -------------- --------------
    1 H                    1.0000     0.00000000     0.00000000     0.61884000
    2 F                    9.0000     0.00000000     0.00000000    -0.06876000

      Atomic Mass 
      ----------- 

      H                  1.007825
      F                 18.998400


 Effective nuclear repulsion energy (a.u.)       6.9264037827

            Nuclear Dipole moment (a.u.) 
            ----------------------------
        X                 Y               Z
 ---------------- ---------------- ----------------
     0.0000000000     0.0000000000     0.0000000000



                                Z-matrix (autoz)
                                -------- 

 Units are Angstrom for bonds and degrees for angles

      Type          Name      I     J     K     L     M      Value
      ----------- --------  ----- ----- ----- ----- ----- ----------
    1 Stretch                  1     2                       0.68760


            XYZ format geometry
            -------------------
     2
 geometry
 H                     0.00000000     0.00000000     0.61884000
 F                     0.00000000     0.00000000    -0.06876000

 ==============================================================================
                                internuclear distances
 ------------------------------------------------------------------------------
       center one      |      center two      | atomic units |  angstroms
 ------------------------------------------------------------------------------
    2 F                |   1 H                |     1.29938  |     0.68760
 ------------------------------------------------------------------------------
                         number of included internuclear distances:          1
 ==============================================================================



                      Basis "ao basis" -> "" (spherical)
                      -----
  H (Hydrogen)
  ------------
            Exponent  Coefficients 
       -------------- ---------------------------------------------------------
  1 S  1.30100000E+01  0.019685
  1 S  1.96200000E+00  0.137977
  1 S  4.44600000E-01  0.478148

  2 S  1.22000000E-01  1.000000

  3 P  7.27000000E-01  1.000000

  F (Fluorine)
  ------------
            Exponent  Coefficients 
       -------------- ---------------------------------------------------------
  1 S  1.47100000E+04  0.000721
  1 S  2.20700000E+03  0.005553
  1 S  5.02800000E+02  0.028267
  1 S  1.42600000E+02  0.106444
  1 S  4.64700000E+01  0.286814
  1 S  1.67000000E+01  0.448641
  1 S  6.35600000E+00  0.264761
  1 S  1.31600000E+00  0.015333

  2 S  1.47100000E+04 -0.000165
  2 S  2.20700000E+03 -0.001308
  2 S  5.02800000E+02 -0.006495
  2 S  1.42600000E+02 -0.026691
  2 S  4.64700000E+01 -0.073690
  2 S  1.67000000E+01 -0.170776
  2 S  6.35600000E+00 -0.112327
  2 S  1.31600000E+00  0.562814

  3 S  3.89700000E-01  1.000000

  4 P  2.26700000E+01  0.044878
  4 P  4.97700000E+00  0.235718
  4 P  1.34700000E+00  0.508521

  5 P  3.47100000E-01  1.000000

  6 D  1.64000000E+00  1.000000



 Summary of "ao basis" -> "" (spherical)
 ------------------------------------------------------------------------------
       Tag                 Description            Shells   Functions and Types
 ---------------- ------------------------------  ------  ---------------------
 H                          cc-pvdz                  3        5   2s1p
 F                          cc-pvdz                  6       14   3s2p1d



 Setting fock-build task_bf   :      -1
                    maxquartet:   10000
                    maxeri    :  129600
                    maxscr    :       0
                    intacc    : 0.0D+00
                    denscreen : T
                    dentol    : 1.0D-06

                                 NWChem SCF Module
                                 -----------------



  ao basis        = "ao basis"
  functions       =    19
  atoms           =     2
  closed shells   =     5
  open shells     =     0
  charge          =   0.00
  wavefunction    = RHF 
  input vectors   = atomic
  output vectors  = ./tce_hf_0.6876.movecs
  use symmetry    = F
  symmetry adapt  = F


 Summary of "ao basis" -> "ao basis" (spherical)
 ------------------------------------------------------------------------------
       Tag                 Description            Shells   Functions and Types
 ---------------- ------------------------------  ------  ---------------------
 H                          cc-pvdz                  3        5   2s1p
 F                          cc-pvdz                  6       14   3s2p1d




                         Geometry "geometry" -> "geometry"
                         ---------------------------------

 Output coordinates in angstroms (scale by  1.889725989 to convert to a.u.)

  No.       Tag          Charge          X              Y              Z
 ---- ---------------- ---------- -------------- -------------- --------------
    1 H                    1.0000     0.00000000     0.00000000     0.61884000
    2 F                    9.0000     0.00000000     0.00000000    -0.06876000

      Atomic Mass 
      ----------- 

      H                  1.007825
      F                 18.998400


 Effective nuclear repulsion energy (a.u.)       6.9264037827

            Nuclear Dipole moment (a.u.) 
            ----------------------------
        X                 Y               Z
 ---------------- ---------------- ----------------
     0.0000000000     0.0000000000     0.0000000000



                                Z-matrix (autoz)
                                -------- 

 Units are Angstrom for bonds and degrees for angles

      Type          Name      I     J     K     L     M      Value
      ----------- --------  ----- ----- ----- ----- ----- ----------
    1 Stretch                  1     2                       0.68760


                      Basis "ao basis" -> "ao basis" (spherical)
                      -----
  H (Hydrogen)
  ------------
            Exponent  Coefficients 
       -------------- ---------------------------------------------------------
  1 S  1.30100000E+01  0.019685
  1 S  1.96200000E+00  0.137977
  1 S  4.44600000E-01  0.478148

  2 S  1.22000000E-01  1.000000

  3 P  7.27000000E-01  1.000000

  F (Fluorine)
  ------------
            Exponent  Coefficients 
       -------------- ---------------------------------------------------------
  1 S  1.47100000E+04  0.000721
  1 S  2.20700000E+03  0.005553
  1 S  5.02800000E+02  0.028267
  1 S  1.42600000E+02  0.106444
  1 S  4.64700000E+01  0.286814
  1 S  1.67000000E+01  0.448641
  1 S  6.35600000E+00  0.264761
  1 S  1.31600000E+00  0.015333

  2 S  1.47100000E+04 -0.000165
  2 S  2.20700000E+03 -0.001308
  2 S  5.02800000E+02 -0.006495
  2 S  1.42600000E+02 -0.026691
  2 S  4.64700000E+01 -0.073690
  2 S  1.67000000E+01 -0.170776
  2 S  6.35600000E+00 -0.112327
  2 S  1.31600000E+00  0.562814

  3 S  3.89700000E-01  1.000000

  4 P  2.26700000E+01  0.044878
  4 P  4.97700000E+00  0.235718
  4 P  1.34700000E+00  0.508521

  5 P  3.47100000E-01  1.000000

  6 D  1.64000000E+00  1.000000



    Basis function labels
    ---------------------
       No.  Atm El Type
       ---  --- -- ----
        1    1 H  s          
        2    1 H  s          
        3    1 H  px         
        4    1 H  py         
        5    1 H  pz         
        6    2 F  s          
        7    2 F  s          
        8    2 F  s          
        9    2 F  px         
       10    2 F  py         
       11    2 F  pz         
       12    2 F  px         
       13    2 F  py         
       14    2 F  pz         
       15    2 F  d -2       
       16    2 F  d -1       
       17    2 F  d  0       
       18    2 F  d  1       
       19    2 F  d  2       

 Schwarz integral screening summary 
 ---------------------------------- 

        No. of atom pairs =       3
       No. of shell pairs =      45

 Atomic screening 

   value      no.     value      no.     value      no.     value      no.   
  -------- ------    -------- ------    -------- ------    -------- ------   
  0.00D+00      0    1.00D-13      0    1.00D-12      0    1.00D-11      0
  1.00D-10      0    1.00D-09      0    1.00D-08      0    1.00D-07      0
  1.00D-06      0    1.00D-05      0    1.00D-04      0    1.00D-03      0
  1.00D-02      0    1.00D-01      0    1.00D+00      3    1.00D+01      0


 Shell screening 

   value      no.     value      no.     value      no.     value      no.   
  -------- ------    -------- ------    -------- ------    -------- ------   
  0.00D+00      0    1.00D-13      0    1.00D-12      0    1.00D-11      0
  1.00D-10      0    1.00D-09      0    1.00D-08      0    1.00D-07      0
  1.00D-06      0    1.00D-05      0    1.00D-04      0    1.00D-03      0
  1.00D-02      0    1.00D-01      8    1.00D+00     37    1.00D+01      0



 Forming initial guess at       0.1s


      Superposition of Atomic Density Guess
      -------------------------------------

 Sum of atomic energies:         -99.88314519

      Non-variational initial energy
      ------------------------------

 Total energy =    -100.063443
 1-e energy   =    -152.120668
 2-e energy   =      45.130820
 HOMO         =      -0.703913
 LUMO         =       0.166888


 Setting fock-build task_bf   :      -1
                    maxquartet:   10000
                    maxeri    :  129600
                    maxscr    :       0
                    intacc    : 0.0D+00
                    denscreen : T
                    dentol    : 1.0D-06


 Wrote molecular orbitals to ./tce_hf_0.6876.movecs


 Starting SCF solution at       0.1s

 ready to solve ...                    0


 ----------------------------------------------
         Quadratically convergent ROHF

 Convergence threshold     :          1.000E-10
 Maximum no. of iterations :           30
 Final Fock-matrix accuracy:          1.000E-10
 ----------------------------------------------

   0: nuse=   1(   0.9) avail=   434884Mb (out of   434884Mb) on .

 #quartets = 1.035D+03 #integrals = 4.841D+03 #direct =  0.0% #cached =100.0%


 Integral file          = ./tce_hf_0.6876.aoints.0
 Record size in doubles =  65536        No. of integs per rec  =  43688
 Max. records in memory =      2        Max. records in file   = 826279
 No. of bits per label  =      8        No. of bits per value  =     64


 Wrote rohf: cfock to ./tce_hf_0.6876.cfock


              iter       energy          gnorm     gmax       time
             ----- ------------------- --------- --------- --------
                 1      -99.8958645465  7.14D-01  3.33D-01      0.1

            ----- linear solve (tol: 1.0E-02 prod-acc: 8.5E-09) -----

               iter nbas    rnorm     rnorm-scal   ratio     time
               ---- ---- ----------- ----------- --------- -------
 rohf_wrap: in g_x =    1              0.71353851
 rohf_wrap: out g_x =    1              0.07277907
                  1    1  7.6943E-16  1.0783E-15    0.0000     0.1

                              ----- Line search ------

        step       energy         lsg     num-lsg   num-lsh   lsrat    time
      ------- ---------------- --------- --------- --------- ------- --------
       0.0000     -99.89586455 -4.93D-02  0.00D+00  0.00D+00 0.0D+00      0.1

 Wrote rohf: cfock to ./tce_hf_0.6876.cfock

       1.0000     -99.91229405  1.68D-02  1.66D-02  6.61D-02 3.4D-01      0.1

 Wrote rohf: cfock to ./tce_hf_0.6876.cfock

       0.7462     -99.91439865 -1.70D-04 -1.79D-04  6.68D-02 3.5D-03      0.1

              iter       energy          gnorm     gmax       time
             ----- ------------------- --------- --------- --------
                 2      -99.9143986487  1.28D-01  6.00D-02      0.1

            ----- linear solve (tol: 1.0E-01 prod-acc: 1.5E-08) -----

               iter nbas    rnorm     rnorm-scal   ratio     time
               ---- ---- ----------- ----------- --------- -------
 rohf_wrap: in g_x =    1              0.12752678
 rohf_wrap: out g_x =    1              0.01417234
                  1    1  3.7280E-02  2.9233E-01    0.0000     0.2
 rohf_wrap: in g_x =    1              0.03728011
 rohf_wrap: out g_x =    1              0.00385465
                  2    2  6.5241E-03  5.1158E-02    0.1750     0.2

                              ----- Line search ------

        step       energy         lsg     num-lsg   num-lsh   lsrat    time
      ------- ---------------- --------- --------- --------- ------- --------
       0.0000     -99.91439865 -1.79D-03  0.00D+00  0.00D+00 0.0D+00      0.2

 Wrote rohf: cfock to ./tce_hf_0.6876.cfock

       1.0000     -99.91530275 -1.76D-05 -1.62D-05  1.78D-03 9.8D-03      0.2

              iter       energy          gnorm     gmax       time
             ----- ------------------- --------- --------- --------
                 3      -99.9153027516  6.58D-03  3.44D-03      0.2

            ----- linear solve (tol: 6.6E-03 prod-acc: 5.2E-11) -----

               iter nbas    rnorm     rnorm-scal   ratio     time
               ---- ---- ----------- ----------- --------- -------
 rohf_wrap: in g_x =    1              0.00658063
 rohf_wrap: out g_x =    1              0.00066269
                  1    1  1.4826E-03  2.2530E-01    0.0000     0.2
 rohf_wrap: in g_x =    1              0.00148260
 rohf_wrap: out g_x =    1              0.00017522
                  2    2  3.5856E-04  5.4488E-02    0.2418     0.2
 rohf_wrap: in g_x =    1              0.00035856
 rohf_wrap: out g_x =    1              0.00004134
                  3    3  5.3983E-05  8.2033E-03    0.1506     0.2
 rohf_wrap: in g_x =    1              0.00005398
 rohf_wrap: out g_x =    1              0.00000396
                  4    4  3.4000E-06  5.1667E-04    0.0630     0.2

                              ----- Line search ------

        step       energy         lsg     num-lsg   num-lsh   lsrat    time
      ------- ---------------- --------- --------- --------- ------- --------
       0.0000     -99.91530275 -4.41D-06  0.00D+00  0.00D+00 0.0D+00      0.2

 Wrote rohf: cfock to ./tce_hf_0.6876.cfock

       1.0000     -99.91530496 -1.03D-09 -9.07D-10  4.41D-06 2.3D-04      0.2

              iter       energy          gnorm     gmax       time
             ----- ------------------- --------- --------- --------
                 4      -99.9153049574  3.78D-06  1.89D-06      0.2

            ----- linear solve (tol: 3.8E-06 prod-acc: 1.7E-17) -----

               iter nbas    rnorm     rnorm-scal   ratio     time
               ---- ---- ----------- ----------- --------- -------
 rohf_wrap: in g_x =    1              0.00000378
 rohf_wrap: out g_x =    1              0.00000055
                  1    1  1.3771E-06  3.6408E-01    0.0000     0.2
 rohf_wrap: in g_x =    1              0.00000138
 rohf_wrap: out g_x =    1              0.00000018
                  2    2  2.2203E-07  5.8702E-02    0.1612     0.2
 rohf_wrap: in g_x =    1              0.00000022
 rohf_wrap: out g_x =    1              0.00000003
                  3    3  2.3921E-08  6.3243E-03    0.1077     0.2
 rohf_wrap: in g_x =    1              0.00000002
 rohf_wrap: out g_x =    1              0.00000000
                  4    4  5.2551E-09  1.3894E-03    0.2197     0.2
 rohf_wrap: in g_x =    1              0.00000001
 rohf_wrap: out g_x =    1              0.00000000
                  5    5  5.5957E-10  1.4794E-04    0.1065     0.2
 rohf_wrap: in g_x =    1              0.00000000
 rohf_wrap: out g_x =    1              0.00000000
                  6    6  4.3545E-11  1.1513E-05    0.0778     0.2
 rohf_wrap: in g_x =    1              0.00000000
 rohf_wrap: out g_x =    1              0.00000000
                  7    7  3.9093E-12  1.0336E-06    0.0898     0.2

                              ----- Line search ------

        step       energy         lsg     num-lsg   num-lsh   lsrat    time
      ------- ---------------- --------- --------- --------- ------- --------
       0.0000     -99.91530496 -2.19D-12  0.00D+00  0.00D+00 0.0D+00      0.2

 Wrote rohf: cfock to ./tce_hf_0.6876.cfock

       1.0000     -99.91530496 -6.67D-19  1.59D-13  2.19D-12 3.0D-07      0.2

              iter       energy          gnorm     gmax       time
             ----- ------------------- --------- --------- --------
                 5      -99.9153049574  4.11D-12  1.78D-12      0.2

 Wrote molecular orbitals to ./tce_hf_0.6876.movecs



       Final RHF  results 
       ------------------ 

         Total SCF energy =    -99.915304957388
      One-electron energy =   -153.437558173611
      Two-electron energy =     46.595849433505
 Nuclear repulsion energy =      6.926403782719

        Time for solution =      0.1s


             Final eigenvalues
             -----------------

              1      
    1  -26.2700
    2   -1.6989
    3   -0.8414
    4   -0.6563
    5   -0.6563
    6    0.2205
    7    1.1120
    8    1.3560
    9    1.4109
   10    1.4109
   11    1.6808
   12    1.6808
   13    2.1277
   14    3.3824
   15    3.9779
   16    3.9779
   17    4.5504
   18    4.5504
   19    5.3972

                       ROHF Final Molecular Orbital Analysis
                       -------------------------------------

 Vector    1  Occ=2.000000D+00  E=-2.627001D+01
              MO Center= -4.8D-20, -1.1D-19, -6.9D-02, r^2= 1.2D-02
   Bfn.  Coefficient  Atom+Function         Bfn.  Coefficient  Atom+Function  
  ----- ------------  ---------------      ----- ------------  ---------------
     6      1.001054  2 F  s          

 Vector    2  Occ=2.000000D+00  E=-1.698889D+00
              MO Center=  2.8D-17, -1.9D-18,  1.2D-01, r^2= 3.3D-01
   Bfn.  Coefficient  Atom+Function         Bfn.  Coefficient  Atom+Function  
  ----- ------------  ---------------      ----- ------------  ---------------
     7      0.460305  2 F  s                  1      0.334790  1 H  s          
     8      0.326105  2 F  s          

 Vector    3  Occ=2.000000D+00  E=-8.414191D-01
              MO Center=  3.1D-17, -1.0D-16, -1.1D-01, r^2= 4.4D-01
   Bfn.  Coefficient  Atom+Function         Bfn.  Coefficient  Atom+Function  
  ----- ------------  ---------------      ----- ------------  ---------------
    11      0.577955  2 F  pz                 1      0.437060  1 H  s          
     8     -0.438018  2 F  s                 14      0.239689  2 F  pz         
     7     -0.155526  2 F  s          

 Vector    4  Occ=2.000000D+00  E=-6.563078D-01
              MO Center= -9.3D-17, -6.9D-18, -4.5D-02, r^2= 4.4D-01
   Bfn.  Coefficient  Atom+Function         Bfn.  Coefficient  Atom+Function  
  ----- ------------  ---------------      ----- ------------  ---------------
     9      0.664282  2 F  px                12      0.460159  2 F  px         

 Vector    5  Occ=2.000000D+00  E=-6.563078D-01
              MO Center= -8.1D-17,  4.5D-17, -4.5D-02, r^2= 4.4D-01
   Bfn.  Coefficient  Atom+Function         Bfn.  Coefficient  Atom+Function  
  ----- ------------  ---------------      ----- ------------  ---------------
    10      0.664282  2 F  py                13      0.460159  2 F  py         

 Vector    6  Occ=0.000000D+00  E= 2.204505D-01
              MO Center= -1.2D-17, -3.4D-17,  8.7D-01, r^2= 2.3D+00
   Bfn.  Coefficient  Atom+Function         Bfn.  Coefficient  Atom+Function  
  ----- ------------  ---------------      ----- ------------  ---------------
     2      1.412345  1 H  s                  8     -0.809977  2 F  s          
    14     -0.216368  2 F  pz         

 Vector    7  Occ=0.000000D+00  E= 1.111958D+00
              MO Center=  3.2D-16, -1.4D-16,  6.9D-01, r^2= 7.6D-01
   Bfn.  Coefficient  Atom+Function         Bfn.  Coefficient  Atom+Function  
  ----- ------------  ---------------      ----- ------------  ---------------
     1      0.935504  1 H  s                  2     -0.705376  1 H  s          
     5      0.678273  1 H  pz                11     -0.417209  2 F  pz         
     8      0.215813  2 F  s          

 Vector    8  Occ=0.000000D+00  E= 1.356001D+00
              MO Center= -8.0D-16,  4.4D-17, -4.6D-01, r^2= 9.3D-01
   Bfn.  Coefficient  Atom+Function         Bfn.  Coefficient  Atom+Function  
  ----- ------------  ---------------      ----- ------------  ---------------
    14      1.771501  2 F  pz                 1     -1.552198  1 H  s          
     8      1.044602  2 F  s                 11     -0.548622  2 F  pz         
     5      0.203009  1 H  pz                 7      0.168213  2 F  s          

 Vector    9  Occ=0.000000D+00  E= 1.410913D+00
              MO Center=  1.4D-16,  1.5D-16, -1.6D-01, r^2= 9.5D-01
   Bfn.  Coefficient  Atom+Function         Bfn.  Coefficient  Atom+Function  
  ----- ------------  ---------------      ----- ------------  ---------------
    13      0.850074  2 F  py                12      0.819711  2 F  px         
    10     -0.621264  2 F  py                 9     -0.599073  2 F  px         
     4     -0.236911  1 H  py                 3     -0.228449  1 H  px         

 Vector   10  Occ=0.000000D+00  E= 1.410913D+00
              MO Center=  1.6D-16, -1.5D-16, -1.6D-01, r^2= 9.5D-01
   Bfn.  Coefficient  Atom+Function         Bfn.  Coefficient  Atom+Function  
  ----- ------------  ---------------      ----- ------------  ---------------
    12      0.850074  2 F  px                13     -0.819711  2 F  py         
     9     -0.621264  2 F  px                10      0.599073  2 F  py         
     3     -0.236911  1 H  px                 4      0.228449  1 H  py         

 Vector   11  Occ=0.000000D+00  E= 1.680791D+00
              MO Center=  1.3D-16, -2.6D-16,  5.7D-01, r^2= 5.6D-01
   Bfn.  Coefficient  Atom+Function         Bfn.  Coefficient  Atom+Function  
  ----- ------------  ---------------      ----- ------------  ---------------
     4      1.032874  1 H  py                 3     -0.489931  1 H  px         
    10     -0.337112  2 F  py                13     -0.310228  2 F  py         
     9      0.159905  2 F  px         

 Vector   12  Occ=0.000000D+00  E= 1.680791D+00
              MO Center=  6.0D-16,  2.7D-16,  5.7D-01, r^2= 5.6D-01
   Bfn.  Coefficient  Atom+Function         Bfn.  Coefficient  Atom+Function  
  ----- ------------  ---------------      ----- ------------  ---------------
     3      1.032874  1 H  px                 4      0.489931  1 H  py         
     9     -0.337112  2 F  px                12     -0.310228  2 F  px         
    10     -0.159905  2 F  py         

 Vector   13  Occ=0.000000D+00  E= 2.127665D+00
              MO Center= -5.3D-16,  2.0D-16,  8.5D-02, r^2= 1.0D+00
   Bfn.  Coefficient  Atom+Function         Bfn.  Coefficient  Atom+Function  
  ----- ------------  ---------------      ----- ------------  ---------------
     8      2.875382  2 F  s                  7     -1.538913  2 F  s          
     1     -1.167479  1 H  s                 14      0.725858  2 F  pz         
     2     -0.663715  1 H  s                  6     -0.659019  2 F  s          
     5      0.375141  1 H  pz                11      0.236920  2 F  pz         

 Vector   14  Occ=0.000000D+00  E= 3.382372D+00
              MO Center= -1.4D-17,  1.8D-17,  4.9D-01, r^2= 4.7D-01
   Bfn.  Coefficient  Atom+Function         Bfn.  Coefficient  Atom+Function  
  ----- ------------  ---------------      ----- ------------  ---------------
     1      1.687630  1 H  s                  5     -1.640431  1 H  pz         
     8     -1.156111  2 F  s                  7     -1.006441  2 F  s          
    11     -0.903411  2 F  pz                 6     -0.472589  2 F  s          
    14     -0.375553  2 F  pz                17      0.287488  2 F  d  0       
     2      0.152917  1 H  s          

 Vector   15  Occ=0.000000D+00  E= 3.977915D+00
              MO Center=  1.1D-17,  5.5D-18, -6.9D-02, r^2= 3.0D-01
   Bfn.  Coefficient  Atom+Function         Bfn.  Coefficient  Atom+Function  
  ----- ------------  ---------------      ----- ------------  ---------------
    19      0.999999  2 F  d  2       

 Vector   16  Occ=0.000000D+00  E= 3.977915D+00
              MO Center=  8.6D-17,  5.9D-18, -6.9D-02, r^2= 3.0D-01
   Bfn.  Coefficient  Atom+Function         Bfn.  Coefficient  Atom+Function  
  ----- ------------  ---------------      ----- ------------  ---------------
    15      0.999999  2 F  d -2       

 Vector   17  Occ=0.000000D+00  E= 4.550380D+00
              MO Center= -6.3D-18,  1.2D-19, -4.3D-03, r^2= 4.3D-01
   Bfn.  Coefficient  Atom+Function         Bfn.  Coefficient  Atom+Function  
  ----- ------------  ---------------      ----- ------------  ---------------
    18      1.093554  2 F  d  1               3      0.639378  1 H  px         
    12     -0.327356  2 F  px                16     -0.188070  2 F  d -1       

 Vector   18  Occ=0.000000D+00  E= 4.550380D+00
              MO Center= -4.6D-19, -2.2D-17, -4.3D-03, r^2= 4.3D-01
   Bfn.  Coefficient  Atom+Function         Bfn.  Coefficient  Atom+Function  
  ----- ------------  ---------------      ----- ------------  ---------------
    16      1.093554  2 F  d -1               4     -0.639378  1 H  py         
    13      0.327356  2 F  py                18      0.188070  2 F  d  1       

 Vector   19  Occ=0.000000D+00  E= 5.397154D+00
              MO Center= -1.4D-17,  9.9D-18, -6.8D-02, r^2= 5.3D-01
   Bfn.  Coefficient  Atom+Function         Bfn.  Coefficient  Atom+Function  
  ----- ------------  ---------------      ----- ------------  ---------------
     1      3.128069  1 H  s                  8     -2.576572  2 F  s          
    14     -1.459439  2 F  pz                 5     -1.283875  1 H  pz         
    17     -1.214950  2 F  d  0              11     -0.636349  2 F  pz         
     7     -0.232841  2 F  s          


 center of mass
 --------------
 x =   0.00000000 y =   0.00000000 z =  -0.06448077

 moments of inertia (a.u.)
 ------------------
           1.615869982414           0.000000000000           0.000000000000
           0.000000000000           1.615869982414           0.000000000000
           0.000000000000           0.000000000000           0.000000000000

  Mulliken analysis of the total density
  --------------------------------------

   Bfn.    Population  Atom+Function
   ---------------------------------
     1      0.862095    1 H  s          
     2     -0.007443    1 H  s          
     3      0.048761    1 H  px         
     4      0.048761    1 H  py         
     5      0.057631    1 H  pz         
     6      2.002072    2 F  s          
     7      0.880318    2 F  s          
     8      0.804087    2 F  s          
     9      1.202981    2 F  px         
    10      1.202981    2 F  py         
    11      1.038955    2 F  pz         
    12      0.747190    2 F  px         
    13      0.747190    2 F  py         
    14      0.354508    2 F  pz         
    15      0.000000    2 F  d -2       
    16      0.001067    2 F  d -1       
    17      0.007777    2 F  d  0       
    18      0.001067    2 F  d  1       
    19      0.000000    2 F  d  2       

    Atom       Charge   Shell Charges
 -----------   ------   -------------------------------------------------------
    1 H    1     1.01   0.86 -0.01  0.16
    2 F    9     8.99   2.00  0.88  0.80  3.44  1.85  0.01

       Multipole analysis of the density wrt the origin
       ------------------------------------------------

     L   x y z        total         open         nuclear
     -   - - -        -----         ----         -------
     0   0 0 0     -0.000000      0.000000     10.000000

     1   1 0 0      0.000000      0.000000      0.000000
     1   0 1 0      0.000000      0.000000      0.000000
     1   0 0 1      0.591930      0.000000      0.000000

     2   2 0 0     -3.838231      0.000000      0.000000
     2   1 1 0      0.000000      0.000000      0.000000
     2   1 0 1     -0.000000      0.000000      0.000000
     2   0 2 0     -3.838231      0.000000      0.000000
     2   0 1 1     -0.000000      0.000000      0.000000
     2   0 0 2     -2.907886      0.000000      1.519539


 Wrote molecular orbitals to ./tce_hf_0.6876.movecs


 Parallel integral file used       1 records with       0 large values


 Read molecular orbitals from ./tce_hf_0.6876.movecs


 Schwarz integral screening summary 
 ---------------------------------- 

        No. of atom pairs =       3
       No. of shell pairs =      45

 Atomic screening 

   value      no.     value      no.     value      no.     value      no.   
  -------- ------    -------- ------    -------- ------    -------- ------   
  0.00D+00      0    1.00D-13      0    1.00D-12      0    1.00D-11      0
  1.00D-10      0    1.00D-09      0    1.00D-08      0    1.00D-07      0
  1.00D-06      0    1.00D-05      0    1.00D-04      0    1.00D-03      0
  1.00D-02      0    1.00D-01      0    1.00D+00      3    1.00D+01      0


 Shell screening 

   value      no.     value      no.     value      no.     value      no.   
  -------- ------    -------- ------    -------- ------    -------- ------   
  0.00D+00      0    1.00D-13      0    1.00D-12      0    1.00D-11      0
  1.00D-10      0    1.00D-09      0    1.00D-08      0    1.00D-07      0
  1.00D-06      0    1.00D-05      0    1.00D-04      0    1.00D-03      0
  1.00D-02      0    1.00D-01      8    1.00D+00     37    1.00D+01      0


                   NWChem Extensible Many-Electron Theory Module
                   ---------------------------------------------

              ======================================================
                   This portion of the program was automatically
                  generated by a Tensor Contraction Engine (TCE).
                  The development of this portion of the program
                 and TCE was supported by US Department of Energy,
                Office of Science, Office of Basic Energy Science.
                      TCE is a product of Battelle and PNNL.
              Please cite: S.Hirata, J.Phys.Chem.A 107, 9887 (2003).
              ======================================================

            General Information
            -------------------
      Number of processors :     1
         Wavefunction type : Restricted Hartree-Fock
          No. of electrons :    10
           Alpha electrons :     5
            Beta electrons :     5
           No. of orbitals :    38
            Alpha orbitals :    19
             Beta orbitals :    19
        Alpha frozen cores :     0
         Beta frozen cores :     0
     Alpha frozen virtuals :     0
      Beta frozen virtuals :     0
         Spin multiplicity : singlet 
    Number of AO functions :    19
       Number of AO shells :     9
        Use of symmetry is : off
      Symmetry adaption is : off
         Schwarz screening : 0.10D-09

          Correlation Information
          -----------------------
          Calculation type : Coupled-cluster singles & doubles                           
   Perturbative correction : none                                                        
            Max iterations :      100
        Residual threshold : 0.10D-07
     T(0) DIIS level shift : 0.00D+00
     L(0) DIIS level shift : 0.00D+00
     T(1) DIIS level shift : 0.00D+00
     L(1) DIIS level shift : 0.00D+00
     T(R) DIIS level shift : 0.00D+00
     T(I) DIIS level shift : 0.00D+00
   CC-T/L Amplitude update :  5-th order DIIS
                I/O scheme : Global Array Library
        L-threshold :  0.10D-07
        EOM-threshold :  0.10D-07
 no EOMCCSD initial starts read in
 TCE RESTART OPTIONS
 READ_INT:   F
 WRITE_INT:  F
 READ_TA:    F
 WRITE_TA:   F
 READ_XA:    F
 WRITE_XA:   F
 READ_IN3:   F
 WRITE_IN3:  F
 SLICE:      F
 D4D5:       F
 quantumc:   F
 qrotation:  F
 qducc:      T
 nacto:                         0
 nrotv:                         0
 nrot:                          0

            Memory Information
            ------------------
          Available GA space size is     402652823 doubles
          Available MA space size is     402651564 doubles

 Maximum block size        32 doubles

 tile_dim =     14

 Block   Spin    Irrep     Size     Offset   Alpha
 -------------------------------------------------
   1    alpha     a      5 doubles       0       1
   2    beta      a      5 doubles       5       1
   3    alpha     a     14 doubles      10       3
   4    beta      a     14 doubles      24       3

 Global array virtual files algorithm will be used

 Parallel file system coherency ......... OK

 Setting fock-build task_bf   :      -1
                    maxquartet:   10000
                    maxeri    :  129600
                    maxscr    :       0
                    intacc    : 0.0D+00
                    denscreen : T
                    dentol    : 1.0D-06

   0: nuse=   1(   0.9) avail=   434884Mb (out of   434884Mb) on .

 #quartets = 1.035D+03 #integrals = 4.841D+03 #direct =  0.0% #cached =100.0%


 Integral file          = ./tce_hf_0.6876.aoints.0
 Record size in doubles =  65536        No. of integs per rec  =  43688
 Max. records in memory =      2        Max. records in file   = 826279
 No. of bits per label  =      8        No. of bits per value  =     64


 Fock matrix recomputed
 1-e file size   =              361
 1-e file name   = ./tce_hf_0.6876.f1
 Cpu & wall time / sec            0.0            0.0
 4-electron integrals stored in orbital form

 v2    file size   =            64311
 4-index algorithm nr.  13 is used
 imaxsize =       30
 imaxsize ichop =        0
 Cpu & wall time / sec            0.1            0.1
 T1-number-of-tasks                    1

 t1 file size   =               70
 t1 file name   = ./tce_hf_0.6876.t1
 t1 file handle =       -998
 T2-number-of-boxes                    2

 t2 file size   =             9800
 t2 file name   = ./tce_hf_0.6876.t2
 t2 file handle =       -996

 CCSD iterations
 -----------------------------------------------------------------
 Iter          Residuum       Correlation     Cpu    Wall    V2*C2
 -----------------------------------------------------------------
    1   0.0938577203953  -0.1935883697524     0.0     0.0     0.0
    2   0.0220516874171  -0.1971411770816     0.0     0.0     0.0
    3   0.0068003529841  -0.1986304933006     0.0     0.0     0.0
    4   0.0023156832893  -0.1989506984447     0.0     0.0     0.0
    5   0.0008189395671  -0.1990525834281     0.0     0.0     0.0
 MICROCYCLE DIIS UPDATE:                    5                    5
    6   0.0000698109242  -0.1990972219090     0.0     0.0     0.0
    7   0.0000167765962  -0.1991014767007     0.0     0.0     0.0
    8   0.0000072910654  -0.1991014716646     0.0     0.0     0.0
    9   0.0000029919145  -0.1991014783699     0.0     0.0     0.0
   10   0.0000013882925  -0.1991014873311     0.0     0.0     0.0
 MICROCYCLE DIIS UPDATE:                   10                    5
   11   0.0000001586639  -0.1991015020430     0.0     0.0     0.0
   12   0.0000000390207  -0.1991014957637     0.0     0.0     0.0
   13   0.0000000150384  -0.1991014961228     0.0     0.0     0.0
   14   0.0000000058290  -0.1991014959483     0.0     0.0     0.0
 -----------------------------------------------------------------
 Iterations converged
 CCSD correlation energy / hartree =        -0.199101495948272
 CCSD total energy / hartree       =      -100.114406453336315

 Singles contributions

 Doubles contributions
 Ground state specification:
 exp(T)|Ref>~(1+T)|Ref>
 ------- a(p)+/a(q) strings ----------

 singles norm

 doubles norm

 Reference string
   1.0000000000000000      :(1a)+ (2a)+ (3a)+ (4a)+ (5a)+ (1b)+ (2b)+ (3b)+ (4b)+ (5b)+ |0>

 Singles strings

 Doubles strings
 -------------------------------------
 enrep_tce =    6.9264037827185634     
  EHF(total)         =       -99.91530496
  Shift (HFtot-HFA)  =         0.00000000
 ALL OCCUPIED ORBITALS ARE ACTIVE IN DUCC --> NO SHIFT
 Number of active orbitals                   10
 Number of active alpha electrons                    5
 Number of active beta electrons                    5
  nos                    10
  nvs                    28
 noas                     5
 nobs                     5
 nvas                    14
 nvbs                    14
 nactv                     5
 From DUCC CCSD corr. ene. -0.19910149594827375     
 From DUCC CCSD corr. ene.-e-part  0.13937589020480970     
 begin_one_electron_integrals
    1    1       -41.1853415778
    1    2         0.7266643473
    1    3        -0.2410422412
    1    6        -0.1728047476
    1    7        -0.1402961239
    1    8         0.1708539871
    2    1         0.7266643473
    2    2        -9.6369622302
    2    3         0.0864068593
    2    6         0.9496680163
    2    7         0.8194276488
    2    8        -0.1252683104
    3    1        -0.2410422412
    3    2         0.0864068593
    3    3        -8.6471572895
    3    6         0.3223489111
    3    7         1.2343448994
    3    8         1.6889401000
    4    4        -8.6228392162
    4    9         1.6128259032
    4   10         1.7258887983
    5    5        -8.6228392162
    5    9         1.7258887983
    5   10        -1.6128259032
    6    1        -0.1728047476
    6    2         0.9496680163
    6    3         0.3223489111
    6    6        -3.3525463217
    6    7        -0.9058039388
    6    8        -0.2065175381
    7    1        -0.1402961239
    7    2         0.8194276488
    7    3         1.2343448994
    7    6        -0.9058039388
    7    7        -4.9861523241
    7    8        -0.4428374763
    8    1         0.1708539871
    8    2        -0.1252683104
    8    3         1.6889401000
    8    6        -0.2065175381
    8    7        -0.4428374763
    8    8        -4.7584427413
    9    4         1.6128259032
    9    5         1.7258887983
    9    9        -5.6955056952
   10    4         1.7258887983
   10    5        -1.6128259032
   10   10        -5.6955056952
 end_one_electron_integrals
 begin_two_electron_integrals
    1    1    1    1        5.3543164421
    2    1    1    1       -0.5101224708
    2    2    1    1        1.2469247398
    2    1    2    1        0.0789716617
    2    2    2    1       -0.0164513870
    2    2    2    2        0.9261766196
    3    1    1    1        0.1648662333
    3    2    1    1       -0.0576113043
    3    3    1    1        1.1853480642
    3    1    2    1       -0.0183455725
    3    1    2    2        0.0247829687
    3    2    2    1        0.0117823258
    3    2    2    2        0.0737884992
    3    3    2    1       -0.0176753574
    3    3    2    2        0.8262774741
    3    1    3    1        0.0373821303
    3    2    3    1        0.0304904680
    3    2    3    2        0.1599407278
    3    3    3    1       -0.0095473686
    3    3    3    2       -0.0480489420
    3    3    3    3        0.8821700115
    4    4    1    1        1.2226602613
    4    4    2    1       -0.0149683518
    4    4    2    2        0.8480608516
    4    4    3    1        0.0061345392
    4    4    3    2       -0.0226998759
    4    4    3    3        0.7931294024
    4    1    4    1        0.0374007934
    4    2    4    1        0.0374103016
    4    2    4    2        0.1499214575
    4    3    4    1       -0.0121465873
    4    3    4    2       -0.0367230356
    4    3    4    3        0.0492062598
    4    4    4    4        0.8865217749
    5    5    1    1        1.2226602613
    5    5    2    1       -0.0149683518
    5    5    2    2        0.8480608516
    5    5    3    1        0.0061345392
    5    5    3    2       -0.0226998759
    5    5    3    3        0.7931294024
    5    5    4    4        0.8034050344
    5    1    5    1        0.0374007934
    5    2    5    1        0.0374103016
    5    2    5    2        0.1499214575
    5    3    5    1       -0.0121465873
    5    3    5    2       -0.0367230356
    5    3    5    3        0.0492062598
    5    4    5    4        0.0397869938
    5    5    5    5        0.8865217749
    6    1    1    1        0.1323446533
    6    2    1    1       -0.1903379339
    6    3    1    1       -0.0588133611
    6    6    1    1        0.3872112660
    6    1    2    1       -0.0224794527
    6    1    2    2        0.0015308621
    6    2    2    1        0.0041436864
    6    2    2    2       -0.1057782476
    6    3    2    1       -0.0006192057
    6    3    2    2       -0.0367155741
    6    6    2    1       -0.0007115467
    6    6    2    2        0.3769143104
    6    1    3    1        0.0003959345
    6    1    3    2       -0.0075295646
    6    1    3    3        0.0059940814
    6    2    3    1       -0.0084235992
    6    2    3    2       -0.0147505870
    6    2    3    3       -0.0791787969
    6    3    3    1       -0.0045587070
    6    3    3    2       -0.0048197893
    6    3    3    3       -0.0291888292
    6    6    3    1        0.0055406549
    6    6    3    2        0.0384297298
    6    6    3    3        0.3483163018
    6    1    4    4        0.0028534756
    6    2    4    4       -0.0899753463
    6    3    4    4       -0.0288152471
    6    4    4    1       -0.0068501694
    6    4    4    2       -0.0149667000
    6    4    4    3        0.0004102082
    6    6    4    4        0.3524583600
    6    1    5    5        0.0028534756
    6    2    5    5       -0.0899753463
    6    3    5    5       -0.0288152471
    6    5    5    1       -0.0068501694
    6    5    5    2       -0.0149667000
    6    5    5    3        0.0004102082
    6    6    5    5        0.3524583600
    6    1    6    1        0.0070256293
    6    2    6    1       -0.0000796769
    6    2    6    2        0.0271535431
    6    3    6    1        0.0009096387
    6    3    6    2        0.0120372926
    6    3    6    3        0.0115297522
    6    4    6    4        0.0103985827
    6    5    6    5        0.0103985827
    6    6    6    1       -0.0004679002
    6    6    6    2       -0.0053764759
    6    6    6    3        0.0100394424
    6    6    6    6        0.3391147739
    7    1    1    1        0.1135048273
    7    2    1    1       -0.1855035233
    7    3    1    1       -0.2673386327
    7    6    1    1        0.1400758307
    7    7    1    1        0.7431229819
    7    1    2    1       -0.0232923300
    7    1    2    2       -0.0076750866
    7    2    2    1        0.0027457631
    7    2    2    2       -0.0826842100
    7    3    2    1        0.0073392317
    7    3    2    2       -0.0835413818
    7    6    2    1       -0.0014977972
    7    6    2    2        0.1051951208
    7    7    2    1       -0.0039421881
    7    7    2    2        0.6677283415
    7    1    3    1       -0.0154600566
    7    1    3    2       -0.0221184636
    7    1    3    3        0.0135911206
    7    2    3    1       -0.0163266112
    7    2    3    2       -0.0108676779
    7    2    3    3       -0.0262577125
    7    3    3    1        0.0052912427
    7    3    3    2        0.0703783536
    7    3    3    3       -0.1255430936
    7    6    3    1        0.0067720540
    7    6    3    2        0.0323295286
    7    6    3    3        0.0835508472
    7    7    3    1        0.0133464444
    7    7    3    2        0.1145446182
    7    7    3    3        0.6156524926
    7    1    4    4        0.0011669613
    7    2    4    4       -0.0844644857
    7    3    4    4       -0.1096295485
    7    4    4    1       -0.0093447928
    7    4    4    2       -0.0374379124
    7    4    4    3       -0.0039217015
    7    6    4    4        0.0804691546
    7    7    4    4        0.5720288193
    7    1    5    5        0.0011669613
    7    2    5    5       -0.0844644857
    7    3    5    5       -0.1096295485
    7    5    5    1       -0.0093447928
    7    5    5    2       -0.0374379124
    7    5    5    3       -0.0039217015
    7    6    5    5        0.0804691546
    7    7    5    5        0.5720288193
    7    1    6    1        0.0094653260
    7    1    6    2        0.0034050439
    7    1    6    3        0.0029308255
    7    1    6    6       -0.0027366712
    7    2    6    1        0.0015649557
    7    2    6    2        0.0309599898
    7    2    6    3        0.0180617847
    7    2    6    6        0.0044661918
    7    3    6    1       -0.0024481422
    7    3    6    2        0.0280451223
    7    3    6    3        0.0191852797
    7    3    6    6        0.0193736712
    7    4    6    4        0.0075222068
    7    5    6    5        0.0075222068
    7    6    6    1       -0.0004356754
    7    6    6    2       -0.0118233904
    7    6    6    3        0.0013056075
    7    6    6    6        0.0367147000
    7    7    6    1       -0.0005430450
    7    7    6    2       -0.0362306526
    7    7    6    3        0.0091769403
    7    7    6    6        0.4041182023
    7    1    7    1        0.0194647758
    7    2    7    1        0.0092870848
    7    2    7    2        0.0726613591
    7    3    7    1       -0.0058544437
    7    3    7    2        0.0486366227
    7    3    7    3        0.1090596793
    7    4    7    4        0.0227213076
    7    5    7    5        0.0227213076
    7    6    7    1       -0.0031662906
    7    6    7    2        0.0012151243
    7    6    7    3        0.0118854713
    7    6    7    6        0.0359218705
    7    7    7    1       -0.0053598325
    7    7    7    2        0.0404539503
    7    7    7    3        0.0627507224
    7    7    7    6        0.1256037114
    7    7    7    7        0.7725800517
    8    1    1    1       -0.1239900554
    8    2    1    1        0.0420554408
    8    3    1    1       -0.3598690709
    8    6    1    1        0.0327153566
    8    7    1    1        0.1294571759
    8    8    1    1        0.7696841679
    8    1    2    1        0.0139322332
    8    1    2    2       -0.0177117221
    8    2    2    1       -0.0061274742
    8    2    2    2       -0.0127717027
    8    3    2    1        0.0107731852
    8    3    2    2       -0.1735986608
    8    6    2    1        0.0008110290
    8    6    2    2        0.0346379609
    8    7    2    1       -0.0054941804
    8    7    2    2        0.0191359414
    8    8    2    1       -0.0098157741
    8    8    2    2        0.5932833078
    8    1    3    1       -0.0301999267
    8    1    3    2       -0.0219152556
    8    1    3    3        0.0067536787
    8    2    3    1       -0.0122032199
    8    2    3    2       -0.0459852486
    8    2    3    3        0.0022464129
    8    3    3    1       -0.0018432085
    8    3    3    2       -0.0280907230
    8    3    3    3       -0.1515968650
    8    6    3    1        0.0053612251
    8    6    3    2        0.0329228259
    8    6    3    3        0.0085098856
    8    7    3    1       -0.0001573315
    8    7    3    2       -0.0185905611
    8    7    3    3        0.0306544898
    8    8    3    1       -0.0031847516
    8    8    3    2       -0.0349912872
    8    8    3    3        0.6350438186
    8    1    4    4       -0.0033782975
    8    2    4    4        0.0264256922
    8    3    4    4       -0.1420016559
    8    4    4    1        0.0096468636
    8    4    4    2        0.0339169837
    8    4    4    3       -0.0145835814
    8    6    4    4        0.0159832744
    8    7    4    4        0.0279772122
    8    8    4    4        0.5808090759
    8    1    5    5       -0.0033782975
    8    2    5    5        0.0264256922
    8    3    5    5       -0.1420016559
    8    5    5    1        0.0096468636
    8    5    5    2        0.0339169837
    8    5    5    3       -0.0145835814
    8    6    5    5        0.0159832744
    8    7    5    5        0.0279772122
    8    8    5    5        0.5808090759
    8    1    6    1       -0.0002089082
    8    1    6    2        0.0061066457
    8    1    6    3        0.0034151199
    8    1    6    6       -0.0038229287
    8    2    6    1        0.0035009060
    8    2    6    2        0.0063965539
    8    2    6    3        0.0107260550
    8    2    6    6        0.0021474582
    8    3    6    1       -0.0028192747
    8    3    6    2        0.0355252082
    8    3    6    3        0.0055134404
    8    3    6    6       -0.0295980037
    8    4    6    4       -0.0025126304
    8    5    6    5       -0.0025126304
    8    6    6    1       -0.0009087728
    8    6    6    2       -0.0039398700
    8    6    6    3        0.0029083406
    8    6    6    6        0.0233532992
    8    7    6    1        0.0015300475
    8    7    6    2       -0.0083733318
    8    7    6    3       -0.0037480134
    8    7    6    6       -0.0014370598
    8    8    6    1        0.0030399149
    8    8    6    2       -0.0408320539
    8    8    6    3       -0.0261524569
    8    8    6    6        0.3040006714
    8    1    7    1        0.0123676112
    8    1    7    2        0.0119628749
    8    1    7    3       -0.0031548266
    8    1    7    6       -0.0047657958
    8    1    7    7       -0.0093076235
    8    2    7    1        0.0094161059
    8    2    7    2        0.0003046908
    8    2    7    3       -0.0136477852
    8    2    7    6       -0.0063157677
    8    2    7    7       -0.0222377404
    8    3    7    1       -0.0039214023
    8    3    7    2        0.0155055424
    8    3    7    3        0.0279004283
    8    3    7    6       -0.0271558134
    8    3    7    7       -0.1178618400
    8    4    7    4       -0.0046858057
    8    5    7    5       -0.0046858057
    8    6    7    1       -0.0032085707
    8    6    7    2       -0.0027792368
    8    6    7    3        0.0103041651
    8    6    7    6        0.0095147165
    8    6    7    7        0.0413647445
    8    7    7    1        0.0023745343
    8    7    7    2       -0.0183599260
    8    7    7    3       -0.0343933205
    8    7    7    6        0.0010541543
    8    7    7    7       -0.0172580833
    8    8    7    1        0.0058531097
    8    8    7    2       -0.0173527368
    8    8    7    3       -0.0696714473
    8    8    7    6        0.0476226929
    8    8    7    7        0.4553089794
    8    1    8    1        0.0236301339
    8    2    8    1        0.0092271414
    8    2    8    2        0.0381077921
    8    3    8    1        0.0011097703
    8    3    8    2       -0.0042142964
    8    3    8    3        0.1007552491
    8    4    8    4        0.0199192567
    8    5    8    5        0.0199192567
    8    6    8    1       -0.0037397542
    8    6    8    2       -0.0000143899
    8    6    8    3       -0.0204370506
    8    6    8    6        0.0164120338
    8    7    8    1        0.0000103233
    8    7    8    2        0.0093483556
    8    7    8    3       -0.0160766587
    8    7    8    6       -0.0000085832
    8    7    8    7        0.0214021271
    8    8    8    1        0.0019095878
    8    8    8    2       -0.0174341911
    8    8    8    3       -0.0404179838
    8    8    8    6       -0.0136548676
    8    8    8    7        0.0073066896
    8    8    8    8        0.5686526214
    9    4    1    1       -0.3560268717
    9    5    1    1       -0.3809851941
    9    9    1    1        1.0114345760
    9    4    2    1        0.0100411158
    9    4    2    2       -0.1506545116
    9    5    2    1        0.0107450217
    9    5    2    2       -0.1612157478
    9    9    2    1       -0.0176511680
    9    9    2    2        0.6716502240
    9    4    3    1       -0.0050345040
    9    4    3    2       -0.0027273016
    9    4    3    3       -0.1283788798
    9    5    3    1       -0.0053874346
    9    5    3    2       -0.0029184919
    9    5    3    3       -0.1373785417
    9    9    3    1        0.0058653236
    9    9    3    2       -0.0276982696
    9    9    3    3        0.6481291185
    9    1    4    1       -0.0286750861
    9    1    4    2       -0.0258240709
    9    1    4    3        0.0083898724
    9    2    4    1       -0.0149316952
    9    2    4    2       -0.0346659302
    9    2    4    3        0.0034210967
    9    3    4    1        0.0032989424
    9    3    4    2       -0.0034040033
    9    3    4    3       -0.0081159514
    9    4    4    4       -0.1502852328
    9    5    4    4       -0.1432125059
    9    6    4    1        0.0059127128
    9    6    4    2        0.0286847143
    9    6    4    3       -0.0065067929
    9    7    4    1        0.0040846882
    9    7    4    2        0.0081319892
    9    7    4    3        0.0045563225
    9    8    4    1       -0.0046525714
    9    8    4    2       -0.0107065148
    9    8    4    3        0.0183435733
    9    9    4    4        0.6807349804
    9    1    5    1       -0.0306852771
    9    1    5    2       -0.0276343991
    9    1    5    3        0.0089780222
    9    2    5    1       -0.0159784422
    9    2    5    2       -0.0370960936
    9    2    5    3        0.0036609236
    9    3    5    1        0.0035302061
    9    3    5    2       -0.0036426320
    9    3    5    3       -0.0086848987
    9    4    5    4       -0.0090206876
    9    4    5    5       -0.1338306613
    9    5    5    4       -0.0080248288
    9    5    5    5       -0.1608205817
    9    6    5    1        0.0063272078
    9    6    5    2        0.0306955804
    9    6    5    3       -0.0069629345
    9    7    5    1        0.0043710345
    9    7    5    2        0.0087020608
    9    7    5    3        0.0048757314
    9    8    5    1       -0.0049787277
    9    8    5    2       -0.0114570667
    9    8    5    3        0.0196295010
    9    9    5    4        0.0293211662
    9    9    5    5        0.6847112914
    9    1    6    4        0.0047914392
    9    1    6    5        0.0051273303
    9    2    6    4        0.0116009664
    9    2    6    5        0.0124142215
    9    3    6    4       -0.0017082246
    9    3    6    5       -0.0018279752
    9    4    6    1       -0.0019232966
    9    4    6    2        0.0344045982
    9    4    6    3        0.0072804739
    9    4    6    6       -0.0176346897
    9    5    6    1       -0.0020581242
    9    5    6    2        0.0368164416
    9    5    6    3        0.0077908523
    9    5    6    6       -0.0188709230
    9    6    6    4        0.0022262128
    9    6    6    5        0.0023822756
    9    7    6    4       -0.0056627943
    9    7    6    5       -0.0060597696
    9    8    6    4        0.0006251064
    9    8    6    5        0.0006689278
    9    9    6    1        0.0039888329
    9    9    6    2       -0.0596126705
    9    9    6    3       -0.0246588599
    9    9    6    6        0.3251305565
    9    1    7    4        0.0063641505
    9    1    7    5        0.0068102925
    9    2    7    4        0.0111457669
    9    2    7    5        0.0119271114
    9    3    7    4        0.0057023620
    9    3    7    5        0.0061021110
    9    4    7    1       -0.0003624855
    9    4    7    2        0.0307546943
    9    4    7    3        0.0369501153
    9    4    7    6       -0.0232588617
    9    4    7    7       -0.0761343559
    9    5    7    1       -0.0003878965
    9    5    7    2        0.0329106708
    9    5    7    3        0.0395404054
    9    5    7    6       -0.0248893627
    9    5    7    7       -0.0814715536
    9    6    7    4       -0.0079617293
    9    6    7    5       -0.0085198653
    9    7    7    4       -0.0064805753
    9    7    7    5       -0.0069348789
    9    8    7    4       -0.0020907350
    9    8    7    5       -0.0022373005
    9    9    7    1        0.0026552828
    9    9    7    2       -0.0613191896
    9    9    7    3       -0.0840939431
    9    9    7    6        0.0526367794
    9    9    7    7        0.4707327319
    9    1    8    4       -0.0064286823
    9    1    8    5       -0.0068793480
    9    2    8    4       -0.0076206357
    9    2    8    5       -0.0081548602
    9    3    8    4        0.0096769148
    9    3    8    5        0.0103552893
    9    4    8    1        0.0032097767
    9    4    8    2       -0.0058788496
    9    4    8    3        0.0607819022
    9    4    8    6       -0.0064347905
    9    4    8    7       -0.0166542769
    9    4    8    8       -0.0562199824
    9    5    8    1        0.0034347896
    9    5    8    2       -0.0062909708
    9    5    8    3        0.0650428567
    9    5    8    6       -0.0068858845
    9    5    8    7       -0.0178217809
    9    5    8    8       -0.0601611356
    9    6    8    4        0.0049893871
    9    6    8    5        0.0053391549
    9    7    8    4       -0.0019451657
    9    7    8    5       -0.0020815264
    9    8    8    4        0.0007342157
    9    8    8    5        0.0007856860
    9    9    8    1       -0.0038594164
    9    9    8    2        0.0141315840
    9    9    8    3       -0.0905032224
    9    9    8    6        0.0073721005
    9    9    8    7        0.0224132202
    9    9    8    8        0.5140894069
    9    1    9    1        0.0457875569
    9    2    9    1        0.0226999513
    9    2    9    2        0.0432836371
    9    3    9    1       -0.0052144917
    9    3    9    2       -0.0085331193
    9    3    9    3        0.0192925541
    9    4    9    4        0.0821335158
    9    5    9    4        0.0701716308
    9    5    9    5        0.0916496527
    9    6    9    1       -0.0085565151
    9    6    9    2       -0.0044675775
    9    6    9    3       -0.0077105800
    9    6    9    6        0.0230345782
    9    7    9    1       -0.0061464477
    9    7    9    2       -0.0149454358
    9    7    9    3       -0.0024313067
    9    7    9    6       -0.0020391287
    9    7    9    7        0.0105858393
    9    8    9    1        0.0067210878
    9    8    9    2        0.0034324713
    9    8    9    3       -0.0012501673
    9    8    9    6       -0.0046349019
    9    8    9    7        0.0018768757
    9    8    9    8        0.0259872588
    9    9    9    4       -0.0934742194
    9    9    9    5       -0.1000269824
    9    9    9    9        0.6237573490
   10    4    1    1       -0.3809851941
   10    5    1    1        0.3560268717
   10   10    1    1        1.0114345760
   10    4    2    1        0.0107450217
   10    4    2    2       -0.1612157478
   10    5    2    1       -0.0100411158
   10    5    2    2        0.1506545116
   10   10    2    1       -0.0176511680
   10   10    2    2        0.6716502240
   10    4    3    1       -0.0053874346
   10    4    3    2       -0.0029184919
   10    4    3    3       -0.1373785417
   10    5    3    1        0.0050345040
   10    5    3    2        0.0027273016
   10    5    3    3        0.1283788798
   10   10    3    1        0.0058653236
   10   10    3    2       -0.0276982696
   10   10    3    3        0.6481291185
   10    1    4    1       -0.0306852771
   10    1    4    2       -0.0276343991
   10    1    4    3        0.0089780222
   10    2    4    1       -0.0159784422
   10    2    4    2       -0.0370960936
   10    2    4    3        0.0036609236
   10    3    4    1        0.0035302061
   10    3    4    2       -0.0036426320
   10    3    4    3       -0.0086848987
   10    4    4    4       -0.1608205817
   10    5    4    4        0.1338306613
   10    6    4    1        0.0063272078
   10    6    4    2        0.0306955804
   10    6    4    3       -0.0069629345
   10    7    4    1        0.0043710345
   10    7    4    2        0.0087020608
   10    7    4    3        0.0048757314
   10    8    4    1       -0.0049787277
   10    8    4    2       -0.0114570667
   10    8    4    3        0.0196295010
   10    9    4    4        0.0293211662
   10   10    4    4        0.6847112914
   10    1    5    1        0.0286750861
   10    1    5    2        0.0258240709
   10    1    5    3       -0.0083898724
   10    2    5    1        0.0149316952
   10    2    5    2        0.0346659302
   10    2    5    3       -0.0034210967
   10    3    5    1       -0.0032989424
   10    3    5    2        0.0034040033
   10    3    5    3        0.0081159514
   10    4    5    4        0.0084297428
   10    4    5    5       -0.1432125059
   10    5    5    4       -0.0085873882
   10    5    5    5        0.1502852328
   10    6    5    1       -0.0059127128
   10    6    5    2       -0.0286847143
   10    6    5    3        0.0065067929
   10    7    5    1       -0.0040846882
   10    7    5    2       -0.0081319892
   10    7    5    3       -0.0045563225
   10    8    5    1        0.0046525714
   10    8    5    2        0.0107065148
   10    8    5    3       -0.0183435733
   10    9    5    4        0.0019263175
   10    9    5    5       -0.0293211662
   10   10    5    4       -0.0293211662
   10   10    5    5        0.6807349804
   10    1    6    4        0.0051273303
   10    1    6    5       -0.0047914392
   10    2    6    4        0.0124142215
   10    2    6    5       -0.0116009664
   10    3    6    4       -0.0018279752
   10    3    6    5        0.0017082246
   10    4    6    1       -0.0020581242
   10    4    6    2        0.0368164416
   10    4    6    3        0.0077908523
   10    4    6    6       -0.0188709230
   10    5    6    1        0.0019232966
   10    5    6    2       -0.0344045982
   10    5    6    3       -0.0072804739
   10    5    6    6        0.0176346897
   10    6    6    4        0.0023822756
   10    6    6    5       -0.0022262128
   10    7    6    4       -0.0060597696
   10    7    6    5        0.0056627943
   10    8    6    4        0.0006689278
   10    8    6    5       -0.0006251064
   10   10    6    1        0.0039888329
   10   10    6    2       -0.0596126705
   10   10    6    3       -0.0246588599
   10   10    6    6        0.3251305565
   10    1    7    4        0.0068102925
   10    1    7    5       -0.0063641505
   10    2    7    4        0.0119271114
   10    2    7    5       -0.0111457669
   10    3    7    4        0.0061021110
   10    3    7    5       -0.0057023620
   10    4    7    1       -0.0003878965
   10    4    7    2        0.0329106708
   10    4    7    3        0.0395404054
   10    4    7    6       -0.0248893627
   10    4    7    7       -0.0814715536
   10    5    7    1        0.0003624855
   10    5    7    2       -0.0307546943
   10    5    7    3       -0.0369501153
   10    5    7    6        0.0232588617
   10    5    7    7        0.0761343559
   10    6    7    4       -0.0085198653
   10    6    7    5        0.0079617293
   10    7    7    4       -0.0069348789
   10    7    7    5        0.0064805753
   10    8    7    4       -0.0022373005
   10    8    7    5        0.0020907350
   10   10    7    1        0.0026552828
   10   10    7    2       -0.0613191896
   10   10    7    3       -0.0840939431
   10   10    7    6        0.0526367794
   10   10    7    7        0.4707327319
   10    1    8    4       -0.0068793480
   10    1    8    5        0.0064286823
   10    2    8    4       -0.0081548602
   10    2    8    5        0.0076206357
   10    3    8    4        0.0103552893
   10    3    8    5       -0.0096769148
   10    4    8    1        0.0034347896
   10    4    8    2       -0.0062909708
   10    4    8    3        0.0650428567
   10    4    8    6       -0.0068858845
   10    4    8    7       -0.0178217809
   10    4    8    8       -0.0601611356
   10    5    8    1       -0.0032097767
   10    5    8    2        0.0058788496
   10    5    8    3       -0.0607819022
   10    5    8    6        0.0064347905
   10    5    8    7        0.0166542769
   10    5    8    8        0.0562199824
   10    6    8    4        0.0053391549
   10    6    8    5       -0.0049893871
   10    7    8    4       -0.0020815264
   10    7    8    5        0.0019451657
   10    8    8    4        0.0007856860
   10    8    8    5       -0.0007342157
   10   10    8    1       -0.0038594164
   10   10    8    2        0.0141315840
   10   10    8    3       -0.0905032224
   10   10    8    6        0.0073721005
   10   10    8    7        0.0224132202
   10   10    8    8        0.5140894069
   10    4    9    4        0.0701716308
   10    4    9    5        0.0552656587
   10    4    9    9       -0.0961408031
   10    5    9    4       -0.0457495218
   10    5    9    5       -0.0701716308
   10    5    9    9        0.0898426236
   10    9    9    4       -0.0019531303
   10    9    9    5        0.0018251808
   10   10    9    4       -0.0898426236
   10   10    9    5       -0.0961408031
   10   10    9    9        0.5631799647
   10    1   10    1        0.0457875569
   10    2   10    1        0.0226999513
   10    2   10    2        0.0432836371
   10    3   10    1       -0.0052144917
   10    3   10    2       -0.0085331193
   10    3   10    3        0.0192925541
   10    4   10    4        0.0916496527
   10    5   10    4       -0.0701716308
   10    5   10    5        0.0821335158
   10    6   10    1       -0.0085565151
   10    6   10    2       -0.0044675775
   10    6   10    3       -0.0077105800
   10    6   10    6        0.0230345782
   10    7   10    1       -0.0061464477
   10    7   10    2       -0.0149454358
   10    7   10    3       -0.0024313067
   10    7   10    6       -0.0020391287
   10    7   10    7        0.0105858393
   10    8   10    1        0.0067210878
   10    8   10    2        0.0034324713
   10    8   10    3       -0.0012501673
   10    8   10    6       -0.0046349019
   10    8   10    7        0.0018768757
   10    8   10    8        0.0259872588
   10    9   10    4       -0.0018064151
   10    9   10    5       -0.0019330490
   10    9   10    9        0.0302886922
   10   10   10    4       -0.1000269824
   10   10   10    5        0.0934742194
   10   10   10   10        0.6237573490
 end_two_electron_integrals
 fcidump
      5.3543164421     1   1   1   1
     -0.5101224708     2   1   1   1
      0.0789716617     2   1   2   1
      1.2469247398     2   2   1   1
     -0.0164513870     2   2   2   1
      0.9261766196     2   2   2   2
      0.1648662333     3   1   1   1
     -0.0183455725     3   1   2   1
      0.0247829687     3   1   2   2
      0.0373821303     3   1   3   1
     -0.0576113043     3   2   1   1
      0.0117823258     3   2   2   1
      0.0737884992     3   2   2   2
      0.0304904680     3   2   3   1
      0.1599407278     3   2   3   2
      1.1853480642     3   3   1   1
     -0.0176753574     3   3   2   1
      0.8262774741     3   3   2   2
     -0.0095473686     3   3   3   1
     -0.0480489420     3   3   3   2
      0.8821700115     3   3   3   3
      0.0374007934     4   1   4   1
      0.0374103016     4   2   4   1
      0.1499214575     4   2   4   2
     -0.0121465873     4   3   4   1
     -0.0367230356     4   3   4   2
      0.0492062598     4   3   4   3
      1.2226602613     4   4   1   1
     -0.0149683518     4   4   2   1
      0.8480608516     4   4   2   2
      0.0061345392     4   4   3   1
     -0.0226998759     4   4   3   2
      0.7931294024     4   4   3   3
      0.8865217749     4   4   4   4
      0.0374007934     5   1   5   1
      0.0374103016     5   2   5   1
      0.1499214575     5   2   5   2
     -0.0121465873     5   3   5   1
     -0.0367230356     5   3   5   2
      0.0492062598     5   3   5   3
      0.0397869938     5   4   5   4
      1.2226602613     5   5   1   1
     -0.0149683518     5   5   2   1
      0.8480608516     5   5   2   2
      0.0061345392     5   5   3   1
     -0.0226998759     5   5   3   2
      0.7931294024     5   5   3   3
      0.8034050344     5   5   4   4
      0.8865217749     5   5   5   5
      0.1323446533     6   1   1   1
     -0.0224794527     6   1   2   1
      0.0015308621     6   1   2   2
      0.0003959345     6   1   3   1
     -0.0075295646     6   1   3   2
      0.0059940814     6   1   3   3
      0.0028534756     6   1   4   4
      0.0028534756     6   1   5   5
      0.0070256293     6   1   6   1
     -0.1903379339     6   2   1   1
      0.0041436864     6   2   2   1
     -0.1057782476     6   2   2   2
     -0.0084235992     6   2   3   1
     -0.0147505870     6   2   3   2
     -0.0791787969     6   2   3   3
     -0.0899753463     6   2   4   4
     -0.0899753463     6   2   5   5
     -0.0000796769     6   2   6   1
      0.0271535431     6   2   6   2
     -0.0588133611     6   3   1   1
     -0.0006192057     6   3   2   1
     -0.0367155741     6   3   2   2
     -0.0045587070     6   3   3   1
     -0.0048197893     6   3   3   2
     -0.0291888292     6   3   3   3
     -0.0288152471     6   3   4   4
     -0.0288152471     6   3   5   5
      0.0009096387     6   3   6   1
      0.0120372926     6   3   6   2
      0.0115297522     6   3   6   3
     -0.0068501694     6   4   4   1
     -0.0149667000     6   4   4   2
      0.0004102082     6   4   4   3
      0.0103985827     6   4   6   4
     -0.0068501694     6   5   5   1
     -0.0149667000     6   5   5   2
      0.0004102082     6   5   5   3
      0.0103985827     6   5   6   5
      0.3872112660     6   6   1   1
     -0.0007115467     6   6   2   1
      0.3769143104     6   6   2   2
      0.0055406549     6   6   3   1
      0.0384297298     6   6   3   2
      0.3483163018     6   6   3   3
      0.3524583600     6   6   4   4
      0.3524583600     6   6   5   5
     -0.0004679002     6   6   6   1
     -0.0053764759     6   6   6   2
      0.0100394424     6   6   6   3
      0.3391147739     6   6   6   6
      0.1135048273     7   1   1   1
     -0.0232923300     7   1   2   1
     -0.0076750866     7   1   2   2
     -0.0154600566     7   1   3   1
     -0.0221184636     7   1   3   2
      0.0135911206     7   1   3   3
      0.0011669613     7   1   4   4
      0.0011669613     7   1   5   5
      0.0094653260     7   1   6   1
      0.0034050439     7   1   6   2
      0.0029308255     7   1   6   3
     -0.0027366712     7   1   6   6
      0.0194647758     7   1   7   1
     -0.1855035233     7   2   1   1
      0.0027457631     7   2   2   1
     -0.0826842100     7   2   2   2
     -0.0163266112     7   2   3   1
     -0.0108676779     7   2   3   2
     -0.0262577125     7   2   3   3
     -0.0844644857     7   2   4   4
     -0.0844644857     7   2   5   5
      0.0015649557     7   2   6   1
      0.0309599898     7   2   6   2
      0.0180617847     7   2   6   3
      0.0044661918     7   2   6   6
      0.0092870848     7   2   7   1
      0.0726613591     7   2   7   2
     -0.2673386327     7   3   1   1
      0.0073392317     7   3   2   1
     -0.0835413818     7   3   2   2
      0.0052912427     7   3   3   1
      0.0703783536     7   3   3   2
     -0.1255430936     7   3   3   3
     -0.1096295485     7   3   4   4
     -0.1096295485     7   3   5   5
     -0.0024481422     7   3   6   1
      0.0280451223     7   3   6   2
      0.0191852797     7   3   6   3
      0.0193736712     7   3   6   6
     -0.0058544437     7   3   7   1
      0.0486366227     7   3   7   2
      0.1090596793     7   3   7   3
     -0.0093447928     7   4   4   1
     -0.0374379124     7   4   4   2
     -0.0039217015     7   4   4   3
      0.0075222068     7   4   6   4
      0.0227213076     7   4   7   4
     -0.0093447928     7   5   5   1
     -0.0374379124     7   5   5   2
     -0.0039217015     7   5   5   3
      0.0075222068     7   5   6   5
      0.0227213076     7   5   7   5
      0.1400758307     7   6   1   1
     -0.0014977972     7   6   2   1
      0.1051951208     7   6   2   2
      0.0067720540     7   6   3   1
      0.0323295286     7   6   3   2
      0.0835508472     7   6   3   3
      0.0804691546     7   6   4   4
      0.0804691546     7   6   5   5
     -0.0004356754     7   6   6   1
     -0.0118233904     7   6   6   2
      0.0013056075     7   6   6   3
      0.0367147000     7   6   6   6
     -0.0031662906     7   6   7   1
      0.0012151243     7   6   7   2
      0.0118854713     7   6   7   3
      0.0359218705     7   6   7   6
      0.7431229819     7   7   1   1
     -0.0039421881     7   7   2   1
      0.6677283415     7   7   2   2
      0.0133464444     7   7   3   1
      0.1145446182     7   7   3   2
      0.6156524926     7   7   3   3
      0.5720288193     7   7   4   4
      0.5720288193     7   7   5   5
     -0.0005430450     7   7   6   1
     -0.0362306526     7   7   6   2
      0.0091769403     7   7   6   3
      0.4041182023     7   7   6   6
     -0.0053598325     7   7   7   1
      0.0404539503     7   7   7   2
      0.0627507224     7   7   7   3
      0.1256037114     7   7   7   6
      0.7725800517     7   7   7   7
     -0.1239900554     8   1   1   1
      0.0139322332     8   1   2   1
     -0.0177117221     8   1   2   2
     -0.0301999267     8   1   3   1
     -0.0219152556     8   1   3   2
      0.0067536787     8   1   3   3
     -0.0033782975     8   1   4   4
     -0.0033782975     8   1   5   5
     -0.0002089082     8   1   6   1
      0.0061066457     8   1   6   2
      0.0034151199     8   1   6   3
     -0.0038229287     8   1   6   6
      0.0123676112     8   1   7   1
      0.0119628749     8   1   7   2
     -0.0031548266     8   1   7   3
     -0.0047657958     8   1   7   6
     -0.0093076235     8   1   7   7
      0.0236301339     8   1   8   1
      0.0420554408     8   2   1   1
     -0.0061274742     8   2   2   1
     -0.0127717027     8   2   2   2
     -0.0122032199     8   2   3   1
     -0.0459852486     8   2   3   2
      0.0022464129     8   2   3   3
      0.0264256922     8   2   4   4
      0.0264256922     8   2   5   5
      0.0035009060     8   2   6   1
      0.0063965539     8   2   6   2
      0.0107260550     8   2   6   3
      0.0021474582     8   2   6   6
      0.0094161059     8   2   7   1
      0.0003046908     8   2   7   2
     -0.0136477852     8   2   7   3
     -0.0063157677     8   2   7   6
     -0.0222377404     8   2   7   7
      0.0092271414     8   2   8   1
      0.0381077921     8   2   8   2
     -0.3598690709     8   3   1   1
      0.0107731852     8   3   2   1
     -0.1735986608     8   3   2   2
     -0.0018432085     8   3   3   1
     -0.0280907230     8   3   3   2
     -0.1515968650     8   3   3   3
     -0.1420016559     8   3   4   4
     -0.1420016559     8   3   5   5
     -0.0028192747     8   3   6   1
      0.0355252082     8   3   6   2
      0.0055134404     8   3   6   3
     -0.0295980037     8   3   6   6
     -0.0039214023     8   3   7   1
      0.0155055424     8   3   7   2
      0.0279004283     8   3   7   3
[...]
 tce:restart_ignore_failure           logical[4]      Tue Jul 30 17:20:18 2019 
 tce:guess_lr_real                    logical[1]      Tue Jul 30 17:20:18 2019 
 basis:ao basis:tags info                 int[280]    Tue Jul 30 17:20:18 2019 
 tce:skip_t                           logical[1]      Tue Jul 30 17:20:18 2019 
 tce:hbard                                int[1]      Tue Jul 30 17:20:18 2019 
 tce:diagnt1                          logical[1]      Tue Jul 30 17:20:18 2019 
 geometry:geometry:zmt_ijkang_frz        logical[160]    Tue Jul 30 17:20:18 2019 
 tce:read_integrals                   logical[5]      Tue Jul 30 17:20:18 2019 
 tce:bnumfreq                             int[1]      Tue Jul 30 17:20:18 2019 
 tce:ccsdvar                             char[5]      Tue Jul 30 17:20:18 2019 
 tce:lineresp                         logical[1]      Tue Jul 30 17:20:18 2019 
 tce:save_l                           logical[4]      Tue Jul 30 17:20:18 2019 
 tce:ichopx                               int[1]      Tue Jul 30 17:20:18 2019 
 tce:nogamma                          logical[1]      Tue Jul 30 17:20:18 2019 
 scf:dipole                            double[3]      Tue Jul 30 17:20:18 2019 
 geometry:ngeom                           int[1]      Tue Jul 30 17:20:18 2019 
 tce:uact                                 int[1]      Tue Jul 30 17:20:18 2019 
 geometry:geometry:zmt_ijklto             int[640]    Tue Jul 30 17:20:18 2019 
 tce:save_tr                          logical[8]      Tue Jul 30 17:20:18 2019 
 geometry:geometry:zmt_ijklnb             int[640]    Tue Jul 30 17:20:18 2019 
 geometry:geometry:operators           double[2304]   Tue Jul 30 17:20:18 2019 
 tce:zlshiftl                          double[1]      Tue Jul 30 17:20:18 2019 
 tce:skip_tr                          logical[1]      Tue Jul 30 17:20:18 2019 
 basis:ao basis:star nr tags              int[1]      Tue Jul 30 17:20:18 2019 
 geometry:geometry:zmt_ijkang_val         double[160]    Tue Jul 30 17:20:18 2019 
 tce:anumfreq                             int[1]      Tue Jul 30 17:20:18 2019 
 geometry:geometry:zmt_ijklto_nam           char[160]    Tue Jul 30 17:20:18 2019 
 geometry:geometry:zmt_ijklop_frz        logical[160]    Tue Jul 30 17:20:18 2019 
 tce:save_t                           logical[4]      Tue Jul 30 17:20:18 2019 
 geometry:geometry:zmt_varsign         double[1]      Tue Jul 30 17:20:18 2019 
 geometry:geometry:recip vectors         double[3]      Tue Jul 30 17:20:18 2019 
 tce:model                               char[5]      Tue Jul 30 17:20:18 2019 
 tce:maxiter                              int[1]      Tue Jul 30 17:20:18 2019 
 tce:symmetry                         logical[1]      Tue Jul 30 17:20:18 2019 
 tce:save_x                           logical[4]      Tue Jul 30 17:20:18 2019 
 geometry:geometry:no. unique centers            int[1]      Tue Jul 30 17:20:18 2019 
 basis:ao basis:contraction info            int[90000]  Tue Jul 30 17:20:18 2019 
 tce:save_y                           logical[4]      Tue Jul 30 17:20:18 2019 
 geometry:geometry:zmt_izmat              int[3]      Tue Jul 30 17:20:18 2019 
 basis:ao basis:bs_nr_tags                int[1]      Tue Jul 30 17:20:18 2019 
 geometry:geometry:zmt_ijklop_val         double[160]    Tue Jul 30 17:20:18 2019 
 geometry:geometry:group number            int[1]      Tue Jul 30 17:20:18 2019 
 tce:nactv                                int[1]      Tue Jul 30 17:20:18 2019 
 tce:active_va                            int[1]      Tue Jul 30 17:20:18 2019 
 geometry:geometry:recip angles         double[3]      Tue Jul 30 17:20:18 2019 
 tce:active_vb                            int[1]      Tue Jul 30 17:20:18 2019 
 tce:active_oa                            int[1]      Tue Jul 30 17:20:18 2019 
 tce:active_ob                            int[1]      Tue Jul 30 17:20:18 2019 
 geometry:geometry:zmt_varname           char[2]      Tue Jul 30 17:20:18 2019 
 tce:thresh                            double[1]      Tue Jul 30 17:20:18 2019 
 geometry:geometry:system type            int[1]      Tue Jul 30 17:20:18 2019 
 tce:energy                            double[1]      Tue Jul 30 17:20:29 2019 
 tce:nopolar                          logical[1]      Tue Jul 30 17:20:18 2019 
 basis:ao basis:bs_stdname               char[16]     Tue Jul 30 17:20:18 2019 
 geometry:geometry:charges             double[2]      Tue Jul 30 17:20:18 2019 
 tce:respaxis                         logical[3]      Tue Jul 30 17:20:18 2019 
 tce:perturbative                        char[5]      Tue Jul 30 17:20:18 2019 
 scf:multiplicity                        char[8]      Tue Jul 30 17:20:18 2019 
 geometry:geometry:zmt_nizmat             int[1]      Tue Jul 30 17:20:18 2019 
 scf:output vectors                      char[23]     Tue Jul 30 17:20:18 2019 
 basis:ao basis:header                    int[7]      Tue Jul 30 17:20:18 2019 
 geometry:geometry:zmt_cvr_scaling         double[1]      Tue Jul 30 17:20:18 2019 
 geometry:geometry:tags                  char[4]      Tue Jul 30 17:20:18 2019 
 scf:input vectors                       char[23]     Tue Jul 30 17:20:18 2019 
 geometry:geometry:zmt_ijklnb_nam           char[160]    Tue Jul 30 17:20:18 2019 
 geometry:geometry:zmt_ijklto_frz        logical[160]    Tue Jul 30 17:20:18 2019 
 geometry:geometry:include_bqbq        logical[1]      Tue Jul 30 17:20:18 2019 
 tce:qducc                            logical[1]      Tue Jul 30 17:20:18 2019 
 geometry:geometry:zmt_ijklop             int[640]    Tue Jul 30 17:20:18 2019 
 geometry:geometry:group name            char[3]      Tue Jul 30 17:20:18 2019 
 tce:model2e                             char[6]      Tue Jul 30 17:20:18 2019 
 tce:eactmax                           double[1]      Tue Jul 30 17:20:18 2019 
 tce:zlshift2                          double[2]      Tue Jul 30 17:20:18 2019 
 tce:eactmin                           double[1]      Tue Jul 30 17:20:18 2019 
 basisprint:ao basis                  logical[1]      Tue Jul 30 17:20:18 2019 
 tce:oact                                 int[1]      Tue Jul 30 17:20:18 2019 
 tce:zlshift3                          double[2]      Tue Jul 30 17:20:18 2019 
 tce:densmat                          logical[1]      Tue Jul 30 17:20:18 2019 
 tce:nroots                               int[1]      Tue Jul 30 17:20:18 2019 
 geometry:geometry:zmt_ijklto_val         double[160]    Tue Jul 30 17:20:18 2019 
 geometry:geometry:zmt_maxtor             int[1]      Tue Jul 30 17:20:18 2019 
 scf:converged                        logical[1]      Tue Jul 30 17:20:18 2019 
 scf:nelec                                int[1]      Tue Jul 30 17:20:18 2019 
 tce:maxdiff                           double[1]      Tue Jul 30 17:20:18 2019 
 tce:guess_qr_real                    logical[1]      Tue Jul 30 17:20:18 2019 
 basis:ao basis:number of exps and coeffs            int[1]      Tue Jul 30 17:20:18 2019 
 geometry:names                          char[9]      Tue Jul 30 17:20:18 2019 
 geometry:geometry:masses              double[2]      Tue Jul 30 17:20:18 2019 
 tce:zlshift                           double[1]      Tue Jul 30 17:20:18 2019 
 tce:eoms                                 int[1]      Tue Jul 30 17:20:18 2019 
 tce:ampnorms                         logical[1]      Tue Jul 30 17:20:18 2019 
 scf:scftype                             char[4]      Tue Jul 30 17:20:18 2019 
 tce:diis2                                int[1]      Tue Jul 30 17:20:18 2019 
 tce:read_l                           logical[4]      Tue Jul 30 17:20:18 2019 
 tce:enegr                             double[1]      Tue Jul 30 17:20:29 2019 
 basis:ao basis:exps and coeffs         double[54]     Tue Jul 30 17:20:18 2019 
 tce:diis3                                int[1]      Tue Jul 30 17:20:18 2019 
 geometry:geometry:unique centers            int[2]      Tue Jul 30 17:20:18 2019 
 tce:read_lr                          logical[8]      Tue Jul 30 17:20:18 2019 
 geometry:geometry:zmt_ijbond_nam           char[160]    Tue Jul 30 17:20:18 2019 
 geometry:geometry:amatrix             double[9]      Tue Jul 30 17:20:18 2019 
 geometry:geometry:inv nuc expon         double[2]      Tue Jul 30 17:20:18 2019 
 geometry:geometry:zmt_ijklnb_val         double[160]    Tue Jul 30 17:20:18 2019 
 geometry:geometry:vel                 double[6]      Tue Jul 30 17:20:18 2019 
 geometry:geometry:zmt_ijklnb_frz        logical[160]    Tue Jul 30 17:20:18 2019 
 task:status                          logical[1]      Tue Jul 30 17:20:29 2019 
 geometry:geometry:direct volume         double[1]      Tue Jul 30 17:20:18 2019 
 tce:afreq                             double[1]      Tue Jul 30 17:20:18 2019 
 geometry:geometry:num_operators            int[1]      Tue Jul 30 17:20:18 2019 
 tce:read_t                           logical[4]      Tue Jul 30 17:20:18 2019 
 tce:save_interval                        int[1]      Tue Jul 30 17:20:18 2019 
 basis:nbasis                             int[1]      Tue Jul 30 17:20:18 2019 
 file_prefix                             char[14]     Tue Jul 30 17:20:18 2019 
 geometry:geometry:primitive_center           char[2]      Tue Jul 30 17:20:18 2019 
 task:energy                           double[1]      Tue Jul 30 17:20:29 2019 
 geometry:geometry:ncenter                int[1]      Tue Jul 30 17:20:18 2019 
 tce:idiskx                               int[1]      Tue Jul 30 17:20:18 2019 
 tce:damp2                             double[1]      Tue Jul 30 17:20:18 2019 
 geometry:geometry:zmt_nzvar              int[1]      Tue Jul 30 17:20:18 2019 
 tce:quadresp                         logical[1]      Tue Jul 30 17:20:18 2019 
 tce:damp3                             double[1]      Tue Jul 30 17:20:18 2019 
 scf:thresh                            double[1]      Tue Jul 30 17:20:18 2019 
 scf:energy                            double[1]      Tue Jul 30 17:20:18 2019 
 tce:read_tr                          logical[8]      Tue Jul 30 17:20:18 2019 
 tce:read_x                           logical[4]      Tue Jul 30 17:20:18 2019 
 basis:ao basis:assoc ecp name           char[4]      Tue Jul 30 17:20:18 2019 
 tce:read_y                           logical[4]      Tue Jul 30 17:20:18 2019 
 geometry:geometry:zmt_ijbond             int[320]    Tue Jul 30 17:20:18 2019 
 geometry:geometry:zmt_source            char[6]      Tue Jul 30 17:20:18 2019 
 geometry:geometry:setting number            int[1]      Tue Jul 30 17:20:18 2019 
 tce:act_excit_lvl                        int[1]      Tue Jul 30 17:20:18 2019 
 basis:ao basis:bs_tags                  char[4]      Tue Jul 30 17:20:18 2019 
 tce:i4im                                 int[1]      Tue Jul 30 17:20:18 2019 
 scf:tol2e                             double[1]      Tue Jul 30 17:20:18 2019 
 tce:diis                                 int[1]      Tue Jul 30 17:20:18 2019 
 tce:recompf                          logical[1]      Tue Jul 30 17:20:18 2019 
 rtdb:stored:state                    logical[3]      Tue Jul 30 17:20:18 2019 
 scf:alpha irreps                         int[19]     Tue Jul 30 17:20:18 2019 
 tce:module                              char[4]      Tue Jul 30 17:20:18 2019 
 geometry:geometry:zmt_ijbond_frz        logical[160]    Tue Jul 30 17:20:18 2019 
 tce:target                               int[1]      Tue Jul 30 17:20:18 2019 
 tce:left                             logical[1]      Tue Jul 30 17:20:18 2019 


 HDBM usage statistics
 ---------------------
 Reads         = 1928
 Inserts       = 1090
 Replaces      = 374
 Extracts      = 0
 Deletes       = 2166
 Reuses        = 16

 Memory allocs = 10066
 Memory frees  = 10066
 Memory max    = 1519710
 Memory in use = 0

 IO seeks      = 4075
 IO reads      = 2964
 IO writes     = 3289
 IO nread      = 3222017
 IO nwrite     = 2392627

 Summary of allocated global arrays
-----------------------------------
  No active global arrays



                         GA Statistics for process    0
                         ------------------------------

       create   destroy   get      put      acc     scatter   gather  read&inc
calls: 1848     1848     5891     2387     3108        0        0     3802     
number of processes/call 4.78e+14 -3.39e+15 2.11e+13 0.00e+00 0.00e+00
bytes total:             1.62e+08 8.41e+06 3.93e+07 0.00e+00 0.00e+00 3.04e+04
bytes remote:            0.00e+00 0.00e+00 0.00e+00 0.00e+00 0.00e+00 0.00e+00
Max memory consumed for GA by this process: 1663800 bytes

MA_summarize_allocated_blocks: starting scan ...
MA_summarize_allocated_blocks: scan completed: 0 heap blocks, 0 stack blocks
MA usage statistics:

	allocation statistics:
					      heap	     stack
					      ----	     -----
	current number of blocks	         0	         0
	maximum number of blocks	        17	        40
	current total bytes		         0	         0
	maximum total bytes		   1060368	  55520424
	maximum total K-bytes		      1061	     55521
	maximum total M-bytes		         2	        56

	calls per routine:
		        39  MA_alloc_get
		        39  MA_allocate_heap
		       155  MA_chop_stack
		        39  MA_free_heap
		         0  MA_free_heap_piece
		     13585  MA_get_index
		         5  MA_get_mbase
		         0  MA_get_next_memhandle
		         0  MA_get_numalign
		        41  MA_get_pointer
		         1  MA_init
		         0  MA_initialized
		         0  MA_init_memhandle_iterator
		       198  MA_inquire_avail
		         1  MA_inquire_heap
		         0  MA_inquire_heap_check_stack
		         0  MA_inquire_heap_no_partition
		         1  MA_inquire_stack
		         0  MA_inquire_stack_check_heap
		         0  MA_inquire_stack_no_partition
		     13359  MA_pop_stack
		         1  MA_print_stats
		     13546  MA_push_get
		     13587  MA_push_stack
		         3  MA_set_auto_verify
		         1  MA_set_error_print
		         3  MA_set_hard_fail
		         1  MA_set_numalign
		      9232  MA_sizeof
		        21  MA_sizeof_overhead
		         1  MA_summarize_allocated_blocks
		         0  MA_trace
		     50254  MA_verify_allocator_stuff


                                     CITATION
                                     --------
                Please cite the following reference when publishing
                           results obtained with NWChem:

                 M. Valiev, E.J. Bylaska, N. Govind, K. Kowalski,
              T.P. Straatsma, H.J.J. van Dam, D. Wang, J. Nieplocha,
                        E. Apra, T.L. Windus, W.A. de Jong
                 "NWChem: a comprehensive and scalable open-source
                  solution for large scale molecular simulations"
                      Comput. Phys. Commun. 181, 1477 (2010)
                           doi:10.1016/j.cpc.2010.04.018

                                      AUTHORS
                                      -------
          E. Apra, E. J. Bylaska, W. A. de Jong, N. Govind, K. Kowalski,
       T. P. Straatsma, M. Valiev, H. J. J. van Dam, D. Wang, T. L. Windus,
        J. Hammond, J. Autschbach, K. Bhaskaran-Nair, J. Brabec, K. Lopata,
    S. A. Fischer, S. Krishnamoorthy, M. Jacquelin, W. Ma, M. Klemm, O. Villa,
      Y. Chen, V. Anisimov, F. Aquino, S. Hirata, M. T. Hackler, V. Konjkov,
            D. Mejia-Rodriguez, T. Risthaus, M. Malagoli, A. Marenich,
   A. Otero-de-la-Roza, J. Mullin, P. Nichols, R. Peverati, J. Pittner, Y. Zhao,
        P.-D. Fan, A. Fonari, M. J. Williamson, R. J. Harrison, J. R. Rehr,
      M. Dupuis, D. Silverstein, D. M. A. Smith, J. Nieplocha, V. Tipparaju,
    M. Krishnan, B. E. Van Kuiken, A. Vazquez-Mayagoitia, L. Jensen, M. Swart,
      Q. Wu, T. Van Voorhis, A. A. Auer, M. Nooijen, L. D. Crosby, E. Brown,
      G. Cisneros, G. I. Fann, H. Fruchtl, J. Garza, K. Hirao, R. A. Kendall,
      J. A. Nichols, K. Tsemekhman, K. Wolinski, J. Anchell, D. E. Bernholdt,
      P. Borowski, T. Clark, D. Clerc, H. Dachsel, M. J. O. Deegan, K. Dyall,
    D. Elwood, E. Glendening, M. Gutowski, A. C. Hess, J. Jaffe, B. G. Johnson,
     J. Ju, R. Kobayashi, R. Kutteh, Z. Lin, R. Littlefield, X. Long, B. Meng,
      T. Nakajima, S. Niu, L. Pollack, M. Rosing, K. Glaesemann, G. Sandrone,
      M. Stave, H. Taylor, G. Thomas, J. H. van Lenthe, A. T. Wong, Z. Zhang.

                                    REFERENCES
                                    ----------

          Where appropriate, please cite the following reference(s) 
          when publishing results obtained with NWChem:


     1. D. E. Bernholdt, E. Apra, H. A. Fruchtl, M.F. Guest, R. J. Harrison, 
        R. A. Kendall, R. A. Kutteh, X. Long, J. B. Nicholas, J. A. Nichols, 
        H. L. Taylor, A. T. Wong, G. I. Fann, R. J. Littlefield and
        J. Nieplocha,
        "Parallel Computational Chemistry Made Easier: 
        The Development of NWChem,"
        Int. J. Quantum Chem. Symposium  29, 475-483 (1995).


     2. M. F. Guest, E. Apra, D. E. Bernholdt, H. A. Fruchtl, R. J. Harrison, 
        R. A. Kendall, R. A. Kutteh, X. Long, J. B. Nicholas, J. A. Nichols, 
        H. L. Taylor, A. T. Wong, G. I. Fann, R. J. Littlefield and
        J. Nieplocha,
        "High Performance Computational Chemistry: NWChem and Fully Distributed
        Parallel Applications", in Advances in Parallel Computing, 10, High
        Performance Computing: Technology, Methods, and Applications, Eds. 
        J. Dongarra, L. Gradinetti, G. Joubert, and J. Kowalik, 
        (Elsevier Science B. V. pp. 395-427, 1995).


     3. M. F. Guest, E. Apra, D. E. Bernholdt, H. A. Fruchtl, R. J. Harrison, 
        R. A. Kendall, R. A. Kutteh, J. B. Nicholas, J. A. Nichols, M. S. Stave,
        A. T. Wong, R. J. Littlefield and J. Nieplocha, "High Performance 
        Computational Chemistry: Towards Fully Distributed Parallel Algorithms",
        in High Performance Computing: Symposium 1995, Grand Challenges in 
        Computer Simulation, Adrian M. Tentner, Editor, Proceedings of the 1995 
        Simulation Multiconference, April 9-13, 1995, Phoenix, Arizona, 
        Simulation Councils, Inc., The Society for Computer Simulation, 
        San Diego, CA, 1995. pp. 511-521.


     4. M. F. Guest, E. Apra, D. E. Bernholdt, H. A. Fruchtl, R. J. Harrison,
        R. A. Kendall, R. A. Kutteh, X. Long, J. B. Nicholas, J. A. Nichols, 
        H. L. Taylor, A. T. Wong, G. I. Fann, R. J. Littlefield and
        J. Nieplocha,
        "Advances in Parallel Distributed Data Software; Computational Chemistry
        and NWChem", in Applied Parallel Computing.  Computations in Physics,
        Chemistry, and Engineering Science, Eds. J. Wasnieski, J. Dongarra, and 
        K. Madsen, Lecture Notes in Computer Science, 1041,
        (Springer-Verlag, Berlin, 278-294, 1996).


     5. M. F. Guest, E. Apra, D. E. Bernholdt, H. A. Fruchtl, R. J. Harrison,
        R. A. Kendall, R. A. Kutteh, X. Long, J. B. Nicholas, J. A. Nichols, 
        H. L. Taylor, A. T. Wong, G. I. Fann, R. J. Littlefield and
        J. Nieplocha, 
        "High-Performance Computing in Chemistry; NWChem", Future 
        Generations Computer Systems  12(4), 273, (1996).


     6. R. A. Kendall, E. Apra, D. E. Bernholdt, E. J. Bylaska, M. Dupuis,
        G. I. Fann, R. J. Harrison, J. Ju, J. A. Nichols, J. Nieplocha,
        T. P. Straatsma, T. L. Windus, A. T. Wong,
        Computer Phys. Comm. 128, 260 (2000).


     7. T. P. Straatsma and V. Helms, in Molecular Dynamics on Parallel
        Computers2000, R. Esser et al. editors, p 70.


     8.  T. P. Straatsma, M. Philippopoulos and J. A. McCammon,
         Computer Phys. Comm. 128, 377 (2000).


     9.  M. Valiev, E. J. Bylaska, A. Gramada, and J. H. Weare,
         Reviews in Modern Quantum Chemistry, pages 1684-1734
         (World Scientific, Singapore, 2002).


    10.  E. J. Bylaska, M. Valiev, R. Kawai, and J. H. Weare,
         Computer Phys. Comm. 143, 11 (2002).


    11.  M. Valiev and J. H. Weare,
         J. Phys. Chem. A, 103, 10588 (1999).



 Total times  cpu:       11.2s     wall:       11.2s
