 argument  1 = originalHF.nw
  NWChem w/ OpenMP: maximum threads =    4



============================== echo of input deck ==============================
start tce_hf_1.8336

echo
memory total 6 gb
print high

geometry units angstrom
symmetry c1
H  0.0000000  0.0000  1.8336
F  0.0000000  0.0000  0.00000
end


basis spherical
H library cc-pvdz
F library cc-pvdz
end

scf
thresh 1.0e-10
tol2e 1.0e-10
singlet
rhf
end

tce
2eorb
2emet 13
thresh 1.0d-8
ccsd
end

set tce:qducc T
set tce:nactv 5

task tce energy

================================================================================


                                         
                                         


              Northwest Computational Chemistry Package (NWChem) 6.8
              ------------------------------------------------------


                    Environmental Molecular Sciences Laboratory
                       Pacific Northwest National Laboratory
                                Richland, WA 99352

                              Copyright (c) 1994-2018
                       Pacific Northwest National Laboratory
                            Battelle Memorial Institute

             NWChem is an open-source computational chemistry package
                        distributed under the terms of the
                      Educational Community License (ECL) 2.0
             A copy of the license is included with this distribution
                              in the LICENSE.TXT file

                                  ACKNOWLEDGMENT
                                  --------------

            This software and its documentation were developed at the
            EMSL at Pacific Northwest National Laboratory, a multiprogram
            national laboratory, operated for the U.S. Department of Energy
            by Battelle under Contract Number DE-AC05-76RL01830. Support
            for this work was provided by the Department of Energy Office
            of Biological and Environmental Research, Office of Basic
            Energy Sciences, and the Office of Advanced Scientific Computing.


           Job information
           ---------------

    hostname        = WE27583
    program         = /Users/lamm799/nwchem/bin/MACX64/nwchem
    date            = Tue Jul 30 17:28:21 2019

    compiled        = Mon_Jul_15_13:12:43_2019
    source          = /Users/lamm799/nwchem
    nwchem branch   = Development
    nwchem revision = nwchem_on_git-975-g459e4567d
    ga revision     = 5.7.0
    use scalapack   = F
    input           = originalHF.nw
    prefix          = tce_hf_1.8336.
    data base       = ./tce_hf_1.8336.db
    status          = startup
    nproc           =        1
    time left       =     -1s



           Memory information
           ------------------

    heap     =  201326588 doubles =   1536.0 Mbytes
    stack    =  201326593 doubles =   1536.0 Mbytes
    global   =  402653184 doubles =   3072.0 Mbytes (distinct from heap & stack)
    total    =  805306365 doubles =   6144.0 Mbytes
    verify   = yes
    hardfail = no 


           Directory information
           ---------------------

  0 permanent = .
  0 scratch   = .




                                NWChem Input Module
                                -------------------



 Scaling coordinates for geometry "geometry" by  1.889725989
 (inverse scale =  0.529177249)

 Turning off AUTOSYM since
 SYMMETRY directive was detected!

     MOLECULAR POINT GROUP NUMBER =  1     SCHOENFLIES SYMBOL = C1        

                --------------- GROUP GENERATORS ---------------

                      1 GENERATORS USED TO FORM THE GROUP

                         PT fold Rotoinversion Operator
                     1.000000  0.000000  0.000000  0.000000
                     0.000000  1.000000  0.000000  0.000000
                     0.000000  0.000000  1.000000  0.000000


The   1 symmetry operators (excl. E) are as follows:



                    ---------- FULL LISTING OF GROUP ----------

                  MATRIX REPRESENTATIONS OF THE GROUP OPERATORS

     EXCLUDING THE IDENTITY OPERATOR THERE ARE  1 OPERATORS IN THIS GROUP

                         pt fold Rotoinversion Operator
                     1.000000  0.000000  0.000000  0.000000
                     0.000000  1.000000  0.000000  0.000000
                     0.000000  0.000000  1.000000  0.000000


                  <<< SYMMETRY OPERATION/ATOM MAPPING BUILT >>>
      Symmetry information
      --------------------

 Group name             C1        
 Group number              1
 Group order               1
 No. of unique centers     2



                  Character table for group C1      

                  1e     
        a          1.000

      Symmetry unique atoms

     1    2

      Mapping of centers


      Group operations



          ------
          auto-z
          ------
     1 autoz failed with cvr_scaling = 1.2 changing to 1.3
     2 autoz failed with cvr_scaling = 1.3 changing to 1.4
     3 autoz failed with cvr_scaling = 1.4 changing to 1.5
     4 autoz failed with cvr_scaling = 1.5 changing to 1.6
     5 autoz failed with cvr_scaling = 1.6 changing to 1.7

 AUTOZ failed to generate good internal coordinates.
 Cartesian coordinates will be used in optimizations.



                             Geometry "geometry" -> ""
                             -------------------------

 Output coordinates in angstroms (scale by  1.889725989 to convert to a.u.)

  No.       Tag          Charge          X              Y              Z
 ---- ---------------- ---------- -------------- -------------- --------------
    1 H                    1.0000     0.00000000     0.00000000     1.65024000
    2 F                    9.0000     0.00000000     0.00000000    -0.18336000

      Atomic Mass 
      ----------- 

      H                  1.007825
      F                 18.998400


 Effective nuclear repulsion energy (a.u.)       2.5974014185

            Nuclear Dipole moment (a.u.) 
            ----------------------------
        X                 Y               Z
 ---------------- ---------------- ----------------
     0.0000000000     0.0000000000     0.0000000000


            XYZ format geometry
            -------------------
     2
 geometry
 H                     0.00000000     0.00000000     1.65024000
 F                     0.00000000     0.00000000    -0.18336000

                      Basis "ao basis" -> "" (spherical)
                      -----
  H (Hydrogen)
  ------------
            Exponent  Coefficients 
       -------------- ---------------------------------------------------------
  1 S  1.30100000E+01  0.019685
  1 S  1.96200000E+00  0.137977
  1 S  4.44600000E-01  0.478148

  2 S  1.22000000E-01  1.000000

  3 P  7.27000000E-01  1.000000

  F (Fluorine)
  ------------
            Exponent  Coefficients 
       -------------- ---------------------------------------------------------
  1 S  1.47100000E+04  0.000721
  1 S  2.20700000E+03  0.005553
  1 S  5.02800000E+02  0.028267
  1 S  1.42600000E+02  0.106444
  1 S  4.64700000E+01  0.286814
  1 S  1.67000000E+01  0.448641
  1 S  6.35600000E+00  0.264761
  1 S  1.31600000E+00  0.015333

  2 S  1.47100000E+04 -0.000165
  2 S  2.20700000E+03 -0.001308
  2 S  5.02800000E+02 -0.006495
  2 S  1.42600000E+02 -0.026691
  2 S  4.64700000E+01 -0.073690
  2 S  1.67000000E+01 -0.170776
  2 S  6.35600000E+00 -0.112327
  2 S  1.31600000E+00  0.562814

  3 S  3.89700000E-01  1.000000

  4 P  2.26700000E+01  0.044878
  4 P  4.97700000E+00  0.235718
  4 P  1.34700000E+00  0.508521

  5 P  3.47100000E-01  1.000000

  6 D  1.64000000E+00  1.000000



 Summary of "ao basis" -> "" (spherical)
 ------------------------------------------------------------------------------
       Tag                 Description            Shells   Functions and Types
 ---------------- ------------------------------  ------  ---------------------
 H                          cc-pvdz                  3        5   2s1p
 F                          cc-pvdz                  6       14   3s2p1d



 Setting fock-build task_bf   :      -1
                    maxquartet:   10000
                    maxeri    :  129600
                    maxscr    :       0
                    intacc    : 0.0D+00
                    denscreen : T
                    dentol    : 1.0D-06

                                 NWChem SCF Module
                                 -----------------



  ao basis        = "ao basis"
  functions       =    19
  atoms           =     2
  closed shells   =     5
  open shells     =     0
  charge          =   0.00
  wavefunction    = RHF 
  input vectors   = atomic
  output vectors  = ./tce_hf_1.8336.movecs
  use symmetry    = F
  symmetry adapt  = F


 Summary of "ao basis" -> "ao basis" (spherical)
 ------------------------------------------------------------------------------
       Tag                 Description            Shells   Functions and Types
 ---------------- ------------------------------  ------  ---------------------
 H                          cc-pvdz                  3        5   2s1p
 F                          cc-pvdz                  6       14   3s2p1d




                         Geometry "geometry" -> "geometry"
                         ---------------------------------

 Output coordinates in angstroms (scale by  1.889725989 to convert to a.u.)

  No.       Tag          Charge          X              Y              Z
 ---- ---------------- ---------- -------------- -------------- --------------
    1 H                    1.0000     0.00000000     0.00000000     1.65024000
    2 F                    9.0000     0.00000000     0.00000000    -0.18336000

      Atomic Mass 
      ----------- 

      H                  1.007825
      F                 18.998400


 Effective nuclear repulsion energy (a.u.)       2.5974014185

            Nuclear Dipole moment (a.u.) 
            ----------------------------
        X                 Y               Z
 ---------------- ---------------- ----------------
     0.0000000000     0.0000000000     0.0000000000


                      Basis "ao basis" -> "ao basis" (spherical)
                      -----
  H (Hydrogen)
  ------------
            Exponent  Coefficients 
       -------------- ---------------------------------------------------------
  1 S  1.30100000E+01  0.019685
  1 S  1.96200000E+00  0.137977
  1 S  4.44600000E-01  0.478148

  2 S  1.22000000E-01  1.000000

  3 P  7.27000000E-01  1.000000

  F (Fluorine)
  ------------
            Exponent  Coefficients 
       -------------- ---------------------------------------------------------
  1 S  1.47100000E+04  0.000721
  1 S  2.20700000E+03  0.005553
  1 S  5.02800000E+02  0.028267
  1 S  1.42600000E+02  0.106444
  1 S  4.64700000E+01  0.286814
  1 S  1.67000000E+01  0.448641
  1 S  6.35600000E+00  0.264761
  1 S  1.31600000E+00  0.015333

  2 S  1.47100000E+04 -0.000165
  2 S  2.20700000E+03 -0.001308
  2 S  5.02800000E+02 -0.006495
  2 S  1.42600000E+02 -0.026691
  2 S  4.64700000E+01 -0.073690
  2 S  1.67000000E+01 -0.170776
  2 S  6.35600000E+00 -0.112327
  2 S  1.31600000E+00  0.562814

  3 S  3.89700000E-01  1.000000

  4 P  2.26700000E+01  0.044878
  4 P  4.97700000E+00  0.235718
  4 P  1.34700000E+00  0.508521

  5 P  3.47100000E-01  1.000000

  6 D  1.64000000E+00  1.000000



    Basis function labels
    ---------------------
       No.  Atm El Type
       ---  --- -- ----
        1    1 H  s          
        2    1 H  s          
        3    1 H  px         
        4    1 H  py         
        5    1 H  pz         
        6    2 F  s          
        7    2 F  s          
        8    2 F  s          
        9    2 F  px         
       10    2 F  py         
       11    2 F  pz         
       12    2 F  px         
       13    2 F  py         
       14    2 F  pz         
       15    2 F  d -2       
       16    2 F  d -1       
       17    2 F  d  0       
       18    2 F  d  1       
       19    2 F  d  2       

 Schwarz integral screening summary 
 ---------------------------------- 

        No. of atom pairs =       3
       No. of shell pairs =      45

 Atomic screening 

   value      no.     value      no.     value      no.     value      no.   
  -------- ------    -------- ------    -------- ------    -------- ------   
  0.00D+00      0    1.00D-13      0    1.00D-12      0    1.00D-11      0
  1.00D-10      0    1.00D-09      0    1.00D-08      0    1.00D-07      0
  1.00D-06      0    1.00D-05      0    1.00D-04      0    1.00D-03      0
  1.00D-02      0    1.00D-01      1    1.00D+00      2    1.00D+01      0


 Shell screening 

   value      no.     value      no.     value      no.     value      no.   
  -------- ------    -------- ------    -------- ------    -------- ------   
  0.00D+00      0    1.00D-13      0    1.00D-12      0    1.00D-11      0
  1.00D-10      0    1.00D-09      0    1.00D-08      0    1.00D-07      0
  1.00D-06      0    1.00D-05      0    1.00D-04      0    1.00D-03      2
  1.00D-02      5    1.00D-01     14    1.00D+00     24    1.00D+01      0



 Forming initial guess at       0.0s


      Superposition of Atomic Density Guess
      -------------------------------------

 Sum of atomic energies:         -99.88314519

      Non-variational initial energy
      ------------------------------

 Total energy =     -99.404030
 1-e energy   =    -144.970605
 2-e energy   =      42.969173
 HOMO         =      -0.580319
 LUMO         =      -0.155134


 Setting fock-build task_bf   :      -1
                    maxquartet:   10000
                    maxeri    :  129600
                    maxscr    :       0
                    intacc    : 0.0D+00
                    denscreen : T
                    dentol    : 1.0D-06


 Wrote molecular orbitals to ./tce_hf_1.8336.movecs


 Starting SCF solution at       0.1s

 ready to solve ...                    0


 ----------------------------------------------
         Quadratically convergent ROHF

 Convergence threshold     :          1.000E-10
 Maximum no. of iterations :           30
 Final Fock-matrix accuracy:          1.000E-10
 ----------------------------------------------

   0: nuse=   1(   1.0) avail=   434874Mb (out of   434874Mb) on .

 #quartets = 1.035D+03 #integrals = 4.841D+03 #direct =  0.0% #cached =100.0%


 Integral file          = ./tce_hf_1.8336.aoints.0
 Record size in doubles =  65536        No. of integs per rec  =  43688
 Max. records in memory =      2        Max. records in file   = 826260
 No. of bits per label  =      8        No. of bits per value  =     64


 Wrote rohf: cfock to ./tce_hf_1.8336.cfock


              iter       energy          gnorm     gmax       time
             ----- ------------------- --------- --------- --------
                 1      -99.6659924588  1.21D+00  5.07D-01      0.1

            ----- linear solve (tol: 1.0E-02 prod-acc: 1.4E-08) -----

               iter nbas    rnorm     rnorm-scal   ratio     time
               ---- ---- ----------- ----------- --------- -------
 rohf_wrap: in g_x =    1              1.20783806
 rohf_wrap: out g_x =    1              0.11329235
                  1    1  6.7709E-16  5.6058E-16    0.0000     0.1

                              ----- Line search ------

        step       energy         lsg     num-lsg   num-lsh   lsrat    time
      ------- ---------------- --------- --------- --------- ------- --------
       0.0000     -99.66599246 -1.25D-01  0.00D+00  0.00D+00 0.0D+00      0.1

 Wrote rohf: cfock to ./tce_hf_1.8336.cfock

       1.0000     -99.73983038 -2.05D-02 -2.15D-02  1.05D-01 1.6D-01      0.1

              iter       energy          gnorm     gmax       time
             ----- ------------------- --------- --------- --------
                 2      -99.7398303777  3.46D-01  2.99D-01      0.1

            ----- linear solve (tol: 1.0E-02 prod-acc: 4.1E-09) -----

               iter nbas    rnorm     rnorm-scal   ratio     time
               ---- ---- ----------- ----------- --------- -------
 rohf_wrap: in g_x =    1              0.34622061
 rohf_wrap: out g_x =    1              0.23494552
                  1    1  2.1709E-02  6.2704E-02    0.0000     0.1
 rohf_wrap: in g_x =    1              0.02170929
 rohf_wrap: out g_x =    1              0.00370388
                  2    2  4.3127E-04  1.2457E-03    0.0199     0.1

                              ----- Line search ------

        step       energy         lsg     num-lsg   num-lsh   lsrat    time
      ------- ---------------- --------- --------- --------- ------- --------
       0.0000     -99.73983038 -8.41D-02  0.00D+00  0.00D+00 0.0D+00      0.1

 Wrote rohf: cfock to ./tce_hf_1.8336.cfock

       1.0000     -99.74767079  8.92D-02  7.88D-02  1.73D-01 1.1D+00      0.1

 Wrote rohf: cfock to ./tce_hf_1.8336.cfock

       0.4852     -99.76547397 -1.57D-02 -1.79D-02  2.04D-01 1.9D-01      0.1

              iter       energy          gnorm     gmax       time
             ----- ------------------- --------- --------- --------
                 3      -99.7654739653  5.61D-01  2.52D-01      0.1

            ----- linear solve (tol: 1.0E-02 prod-acc: 6.7E-09) -----

               iter nbas    rnorm     rnorm-scal   ratio     time
               ---- ---- ----------- ----------- --------- -------
 rohf_wrap: in g_x =    1              0.56147598
 rohf_wrap: out g_x =    1              0.08902803
                  1    1  1.6003E-02  2.8502E-02    0.0000     0.2
 rohf_wrap: in g_x =    1              0.01600326
 rohf_wrap: out g_x =    1              0.00272838
                  2    2  4.8289E-04  8.6004E-04    0.0302     0.2

                              ----- Line search ------

        step       energy         lsg     num-lsg   num-lsh   lsrat    time
      ------- ---------------- --------- --------- --------- ------- --------
       0.0000     -99.76547397 -4.09D-02  0.00D+00  0.00D+00 0.0D+00      0.2

 Wrote rohf: cfock to ./tce_hf_1.8336.cfock

       1.0000     -99.78991068 -8.01D-03 -8.00D-03  3.29D-02 2.0D-01      0.2

              iter       energy          gnorm     gmax       time
             ----- ------------------- --------- --------- --------
                 4      -99.7899106848  1.18D-01  6.38D-02      0.2

            ----- linear solve (tol: 1.0E-01 prod-acc: 1.4E-08) -----

               iter nbas    rnorm     rnorm-scal   ratio     time
               ---- ---- ----------- ----------- --------- -------
 rohf_wrap: in g_x =    1              0.11753093
 rohf_wrap: out g_x =    1              0.03993661
                  1    1  9.0690E-02  7.7163E-01    0.0000     0.2
 rohf_wrap: in g_x =    1              0.09068981
 rohf_wrap: out g_x =    1              0.01650260
                  2    2  1.2634E-02  1.0750E-01    0.1393     0.2
 rohf_wrap: in g_x =    1              0.01263447
 rohf_wrap: out g_x =    1              0.00151781
                  3    3  1.8379E-03  1.5637E-02    0.1455     0.2

                              ----- Line search ------

        step       energy         lsg     num-lsg   num-lsh   lsrat    time
      ------- ---------------- --------- --------- --------- ------- --------
       0.0000     -99.78991068 -5.51D-03  0.00D+00  0.00D+00 0.0D+00      0.2

 Wrote rohf: cfock to ./tce_hf_1.8336.cfock

       1.0000     -99.79259719  1.90D-04  1.63D-04  5.70D-03 3.4D-02      0.2

              iter       energy          gnorm     gmax       time
             ----- ------------------- --------- --------- --------
                 5      -99.7925971947  5.29D-03  4.25D-03      0.2

            ----- linear solve (tol: 5.3E-03 prod-acc: 3.4E-11) -----

               iter nbas    rnorm     rnorm-scal   ratio     time
               ---- ---- ----------- ----------- --------- -------
 rohf_wrap: in g_x =    1              0.00529489
 rohf_wrap: out g_x =    1              0.00242639
                  1    1  3.1045E-03  5.8632E-01    0.0000     0.2
 rohf_wrap: in g_x =    1              0.00310449
 rohf_wrap: out g_x =    1              0.00110408
                  2    2  7.3031E-04  1.3793E-01    0.2352     0.2
 rohf_wrap: in g_x =    1              0.00073031
 rohf_wrap: out g_x =    1              0.00021395
                  3    3  1.8222E-04  3.4414E-02    0.2495     0.2
 rohf_wrap: in g_x =    1              0.00018222
 rohf_wrap: out g_x =    1              0.00002319
                  4    4  1.4040E-05  2.6516E-03    0.0771     0.2

                              ----- Line search ------

        step       energy         lsg     num-lsg   num-lsh   lsrat    time
      ------- ---------------- --------- --------- --------- ------- --------
       0.0000     -99.79259719 -1.04D-05  0.00D+00  0.00D+00 0.0D+00      0.2

 Wrote rohf: cfock to ./tce_hf_1.8336.cfock

       1.0000     -99.79260240 -2.89D-08 -2.52D-08  1.04D-05 2.8D-03      0.2

              iter       energy          gnorm     gmax       time
             ----- ------------------- --------- --------- --------
                 6      -99.7926024035  2.07D-05  1.21D-05      0.2

            ----- linear solve (tol: 2.1E-05 prod-acc: 5.1E-16) -----

               iter nbas    rnorm     rnorm-scal   ratio     time
               ---- ---- ----------- ----------- --------- -------
 rohf_wrap: in g_x =    1              0.00002072
 rohf_wrap: out g_x =    1              0.00000729
                  1    1  1.2080E-05  5.8308E-01    0.0000     0.2
 rohf_wrap: in g_x =    1              0.00001208
 rohf_wrap: out g_x =    1              0.00000251
                  2    2  2.4802E-06  1.1971E-01    0.2053     0.2
 rohf_wrap: in g_x =    1              0.00000248
 rohf_wrap: out g_x =    1              0.00000064
                  3    3  4.6704E-07  2.2543E-02    0.1883     0.2
 rohf_wrap: in g_x =    1              0.00000047
 rohf_wrap: out g_x =    1              0.00000008
                  4    4  3.0055E-08  1.4507E-03    0.0644     0.2
 rohf_wrap: in g_x =    1              0.00000003
 rohf_wrap: out g_x =    1              0.00000001
                  5    5  4.3792E-09  2.1137E-04    0.1457     0.2
 rohf_wrap: in g_x =    1              0.00000000
 rohf_wrap: out g_x =    1              0.00000000
                  6    6  4.7380E-10  2.2869E-05    0.1082     0.2
 rohf_wrap: in g_x =    1              0.00000000
 rohf_wrap: out g_x =    1              0.00000000
                  7    7  3.0214E-11  1.4583E-06    0.0638     0.2

                              ----- Line search ------

        step       energy         lsg     num-lsg   num-lsh   lsrat    time
      ------- ---------------- --------- --------- --------- ------- --------
       0.0000     -99.79260240 -1.17D-10  0.00D+00  0.00D+00 0.0D+00      0.2

 Wrote rohf: cfock to ./tce_hf_1.8336.cfock

       1.0000     -99.79260240 -8.65D-16 -8.95D-14  1.17D-10 7.4D-06      0.2

              iter       energy          gnorm     gmax       time
             ----- ------------------- --------- --------- --------
                 7      -99.7926024035  1.46D-10  1.07D-10      0.2

            ----- linear solve (tol: 6.9E-02 prod-acc: 1.2E-17) -----

               iter nbas    rnorm     rnorm-scal   ratio     time
               ---- ---- ----------- ----------- --------- -------
 rohf_wrap: in g_x =    1              0.00000000
 rohf_wrap: out g_x =    1              0.00000000
                  1    1  8.3704E-11  5.7475E-01    0.0000     0.2
 rohf_wrap: in g_x =    1              0.00000000
 rohf_wrap: out g_x =    1              0.00000000
                  2    2  1.7473E-11  1.1998E-01    0.2087     0.2
 rohf_wrap: in g_x =    1              0.00000000
 rohf_wrap: out g_x =    1              0.00000000
                  3    3  3.8214E-12  2.6239E-02    0.2187     0.2

                              ----- Line search ------

        step       energy         lsg     num-lsg   num-lsh   lsrat    time
      ------- ---------------- --------- --------- --------- ------- --------
       0.0000     -99.79260240 -7.31D-21  0.00D+00  0.00D+00 0.0D+00      0.2

 Wrote rohf: cfock to ./tce_hf_1.8336.cfock

       1.0000     -99.79260240 -5.67D-23  1.56D-13  7.25D-21 7.8D-03      0.2

              iter       energy          gnorm     gmax       time
             ----- ------------------- --------- --------- --------
                 8      -99.7926024035  3.84D-12  1.51D-12      0.2

 Wrote molecular orbitals to ./tce_hf_1.8336.movecs



       Final RHF  results 
       ------------------ 

         Total SCF energy =    -99.792602403544
      One-electron energy =   -145.956430094519
      Two-electron energy =     43.566426272456
 Nuclear repulsion energy =      2.597401418519

        Time for solution =      0.1s


             Final eigenvalues
             -----------------

              1      
    1  -26.2740
    2   -1.4670
    3   -0.5841
    4   -0.5841
    5   -0.5026
    6   -0.0608
    7    0.5724
    8    1.2672
    9    1.3376
   10    1.3376
   11    1.5357
   12    1.5357
   13    1.6849
   14    2.1455
   15    4.0392
   16    4.0392
   17    4.0513
   18    4.0513
   19    4.0575

                       ROHF Final Molecular Orbital Analysis
                       -------------------------------------

 Vector    1  Occ=2.000000D+00  E=-2.627402D+01
              MO Center=  7.1D-20, -3.8D-20, -1.8D-01, r^2= 1.2D-02
   Bfn.  Coefficient  Atom+Function         Bfn.  Coefficient  Atom+Function  
  ----- ------------  ---------------      ----- ------------  ---------------
     6      1.000441  2 F  s          

 Vector    2  Occ=2.000000D+00  E=-1.466991D+00
              MO Center= -1.0D-17, -3.3D-18, -1.7D-01, r^2= 3.5D-01
   Bfn.  Coefficient  Atom+Function         Bfn.  Coefficient  Atom+Function  
  ----- ------------  ---------------      ----- ------------  ---------------
     8      0.577180  2 F  s                  7      0.498877  2 F  s          

 Vector    3  Occ=2.000000D+00  E=-5.840994D-01
              MO Center=  1.3D-17, -1.3D-18, -1.8D-01, r^2= 4.4D-01
   Bfn.  Coefficient  Atom+Function         Bfn.  Coefficient  Atom+Function  
  ----- ------------  ---------------      ----- ------------  ---------------
     9      0.653127  2 F  px                12      0.464581  2 F  px         
    10      0.164402  2 F  py         

 Vector    4  Occ=2.000000D+00  E=-5.840994D-01
              MO Center=  8.7D-18,  3.7D-18, -1.8D-01, r^2= 4.4D-01
   Bfn.  Coefficient  Atom+Function         Bfn.  Coefficient  Atom+Function  
  ----- ------------  ---------------      ----- ------------  ---------------
    10      0.653127  2 F  py                13      0.464581  2 F  py         
     9     -0.164402  2 F  px         

 Vector    5  Occ=2.000000D+00  E=-5.025761D-01
              MO Center=  3.2D-18, -1.1D-17,  3.6D-01, r^2= 1.2D+00
   Bfn.  Coefficient  Atom+Function         Bfn.  Coefficient  Atom+Function  
  ----- ------------  ---------------      ----- ------------  ---------------
    11      0.505041  2 F  pz                14      0.405462  2 F  pz         
     1      0.276650  1 H  s                  2      0.268726  1 H  s          

 Vector    6  Occ=0.000000D+00  E=-6.078419D-02
              MO Center=  3.5D-18, -3.1D-18,  1.2D+00, r^2= 1.7D+00
   Bfn.  Coefficient  Atom+Function         Bfn.  Coefficient  Atom+Function  
  ----- ------------  ---------------      ----- ------------  ---------------
     2      0.593063  1 H  s                  1      0.392674  1 H  s          
    11     -0.374738  2 F  pz                14     -0.364637  2 F  pz         

 Vector    7  Occ=0.000000D+00  E= 5.723958D-01
              MO Center= -7.2D-18, -9.5D-18,  1.8D+00, r^2= 1.8D+00
   Bfn.  Coefficient  Atom+Function         Bfn.  Coefficient  Atom+Function  
  ----- ------------  ---------------      ----- ------------  ---------------
     2     -1.312761  1 H  s                  1      1.294877  1 H  s          
     8      0.204800  2 F  s          

 Vector    8  Occ=0.000000D+00  E= 1.267215D+00
              MO Center=  1.9D-16,  1.7D-16,  1.1D+00, r^2= 1.0D+00
   Bfn.  Coefficient  Atom+Function         Bfn.  Coefficient  Atom+Function  
  ----- ------------  ---------------      ----- ------------  ---------------
     5      0.750620  1 H  pz                11      0.535101  2 F  pz         
    14     -0.415979  2 F  pz                 7      0.329826  2 F  s          
     8     -0.266207  2 F  s          

 Vector    9  Occ=0.000000D+00  E= 1.337631D+00
              MO Center= -2.0D-16,  4.7D-17,  1.2D+00, r^2= 1.2D+00
   Bfn.  Coefficient  Atom+Function         Bfn.  Coefficient  Atom+Function  
  ----- ------------  ---------------      ----- ------------  ---------------
     3      0.833999  1 H  px                12      0.468314  2 F  px         
     9     -0.448038  2 F  px                 4     -0.196064  1 H  py         

 Vector   10  Occ=0.000000D+00  E= 1.337631D+00
              MO Center= -2.2D-17, -9.5D-17,  1.2D+00, r^2= 1.2D+00
   Bfn.  Coefficient  Atom+Function         Bfn.  Coefficient  Atom+Function  
  ----- ------------  ---------------      ----- ------------  ---------------
     4      0.833999  1 H  py                13      0.468314  2 F  py         
    10     -0.448038  2 F  py                 3      0.196064  1 H  px         

 Vector   11  Occ=0.000000D+00  E= 1.535698D+00
              MO Center= -6.7D-16, -6.5D-16,  2.5D-01, r^2= 1.4D+00
   Bfn.  Coefficient  Atom+Function         Bfn.  Coefficient  Atom+Function  
  ----- ------------  ---------------      ----- ------------  ---------------
    12      0.667484  2 F  px                13      0.643652  2 F  py         
     9     -0.581235  2 F  px                10     -0.560483  2 F  py         
     3     -0.373292  1 H  px                 4     -0.359964  1 H  py         

 Vector   12  Occ=0.000000D+00  E= 1.535698D+00
              MO Center=  3.8D-16, -4.0D-16,  2.5D-01, r^2= 1.4D+00
   Bfn.  Coefficient  Atom+Function         Bfn.  Coefficient  Atom+Function  
  ----- ------------  ---------------      ----- ------------  ---------------
    13     -0.667484  2 F  py                12      0.643652  2 F  px         
    10      0.581235  2 F  py                 9     -0.560483  2 F  px         
     4      0.373292  1 H  py                 3     -0.359964  1 H  px         

 Vector   13  Occ=0.000000D+00  E= 1.684912D+00
              MO Center=  3.2D-16,  1.4D-15, -4.4D-01, r^2= 1.1D+00
   Bfn.  Coefficient  Atom+Function         Bfn.  Coefficient  Atom+Function  
  ----- ------------  ---------------      ----- ------------  ---------------
     7      0.880823  2 F  s                 14      0.855015  2 F  pz         
     8     -0.829016  2 F  s                 11     -0.709586  2 F  pz         
     5      0.392604  1 H  pz                 6      0.349437  2 F  s          

 Vector   14  Occ=0.000000D+00  E= 2.145523D+00
              MO Center=  6.0D-17, -2.1D-16,  5.2D-01, r^2= 1.2D+00
   Bfn.  Coefficient  Atom+Function         Bfn.  Coefficient  Atom+Function  
  ----- ------------  ---------------      ----- ------------  ---------------
     8     -1.371965  2 F  s                  7      1.283835  2 F  s          
     5     -0.618440  1 H  pz                14     -0.612027  2 F  pz         
     6      0.532255  2 F  s                 11      0.403049  2 F  pz         
     2      0.357926  1 H  s          

 Vector   15  Occ=0.000000D+00  E= 4.039243D+00
              MO Center= -5.1D-17,  4.4D-17, -1.8D-01, r^2= 3.0D-01
   Bfn.  Coefficient  Atom+Function         Bfn.  Coefficient  Atom+Function  
  ----- ------------  ---------------      ----- ------------  ---------------
    18      0.953879  2 F  d  1              16      0.300017  2 F  d -1       

 Vector   16  Occ=0.000000D+00  E= 4.039243D+00
              MO Center=  6.2D-17, -7.2D-17, -1.8D-01, r^2= 3.0D-01
   Bfn.  Coefficient  Atom+Function         Bfn.  Coefficient  Atom+Function  
  ----- ------------  ---------------      ----- ------------  ---------------
    16      0.953879  2 F  d -1              18     -0.300017  2 F  d  1       

 Vector   17  Occ=0.000000D+00  E= 4.051294D+00
              MO Center=  4.4D-18,  1.1D-16, -1.8D-01, r^2= 3.0D-01
   Bfn.  Coefficient  Atom+Function         Bfn.  Coefficient  Atom+Function  
  ----- ------------  ---------------      ----- ------------  ---------------
    19      0.999909  2 F  d  2       

 Vector   18  Occ=0.000000D+00  E= 4.051294D+00
              MO Center= -3.6D-17, -5.3D-17, -1.8D-01, r^2= 3.0D-01
   Bfn.  Coefficient  Atom+Function         Bfn.  Coefficient  Atom+Function  
  ----- ------------  ---------------      ----- ------------  ---------------
    15      0.999909  2 F  d -2       

 Vector   19  Occ=0.000000D+00  E= 4.057455D+00
              MO Center= -6.2D-18, -4.9D-18, -1.7D-01, r^2= 3.2D-01
   Bfn.  Coefficient  Atom+Function         Bfn.  Coefficient  Atom+Function  
  ----- ------------  ---------------      ----- ------------  ---------------
    17      0.998834  2 F  d  0       


 center of mass
 --------------
 x =   0.00000000 y =   0.00000000 z =  -0.17194873

 moments of inertia (a.u.)
 ------------------
          11.490630986052           0.000000000000           0.000000000000
           0.000000000000          11.490630986052           0.000000000000
           0.000000000000           0.000000000000           0.000000000000

  Mulliken analysis of the total density
  --------------------------------------

   Bfn.    Population  Atom+Function
   ---------------------------------
     1      0.304188    1 H  s          
     2      0.324368    1 H  s          
     3      0.000506    1 H  px         
     4      0.000506    1 H  py         
     5      0.005663    1 H  pz         
     6      2.000856    2 F  s          
     7      0.912832    2 F  s          
     8      1.078490    2 F  s          
     9      1.223655    2 F  px         
    10      1.223655    2 F  py         
    11      0.732267    2 F  pz         
    12      0.775814    2 F  px         
    13      0.775814    2 F  py         
    14      0.640981    2 F  pz         
    15      0.000000    2 F  d -2       
    16      0.000025    2 F  d -1       
    17      0.000355    2 F  d  0       
    18      0.000025    2 F  d  1       
    19      0.000000    2 F  d  2       

    Atom       Charge   Shell Charges
 -----------   ------   -------------------------------------------------------
    1 H    1     0.64   0.30  0.32  0.01
    2 F    9     9.36   2.00  0.91  1.08  3.18  2.19  0.00

       Multipole analysis of the density wrt the origin
       ------------------------------------------------

     L   x y z        total         open         nuclear
     -   - - -        -----         ----         -------
     0   0 0 0     -0.000000      0.000000     10.000000

     1   1 0 0     -0.000000      0.000000      0.000000
     1   0 1 0      0.000000      0.000000      0.000000
     1   0 0 1      1.343718      0.000000      0.000000

     2   2 0 0     -4.466609      0.000000      0.000000
     2   1 1 0      0.000000      0.000000      0.000000
     2   1 0 1      0.000000      0.000000      0.000000
     2   0 2 0     -4.466609      0.000000      0.000000
     2   0 1 1      0.000000      0.000000      0.000000
     2   0 0 2      0.235030      0.000000     10.805612


 Wrote molecular orbitals to ./tce_hf_1.8336.movecs


 Parallel integral file used       1 records with       0 large values


 Read molecular orbitals from ./tce_hf_1.8336.movecs


 Schwarz integral screening summary 
 ---------------------------------- 

        No. of atom pairs =       3
       No. of shell pairs =      45

 Atomic screening 

   value      no.     value      no.     value      no.     value      no.   
  -------- ------    -------- ------    -------- ------    -------- ------   
  0.00D+00      0    1.00D-13      0    1.00D-12      0    1.00D-11      0
  1.00D-10      0    1.00D-09      0    1.00D-08      0    1.00D-07      0
  1.00D-06      0    1.00D-05      0    1.00D-04      0    1.00D-03      0
  1.00D-02      0    1.00D-01      1    1.00D+00      2    1.00D+01      0


 Shell screening 

   value      no.     value      no.     value      no.     value      no.   
  -------- ------    -------- ------    -------- ------    -------- ------   
  0.00D+00      0    1.00D-13      0    1.00D-12      0    1.00D-11      0
  1.00D-10      0    1.00D-09      0    1.00D-08      0    1.00D-07      0
  1.00D-06      0    1.00D-05      0    1.00D-04      0    1.00D-03      2
  1.00D-02      5    1.00D-01     14    1.00D+00     24    1.00D+01      0


                   NWChem Extensible Many-Electron Theory Module
                   ---------------------------------------------

              ======================================================
                   This portion of the program was automatically
                  generated by a Tensor Contraction Engine (TCE).
                  The development of this portion of the program
                 and TCE was supported by US Department of Energy,
                Office of Science, Office of Basic Energy Science.
                      TCE is a product of Battelle and PNNL.
              Please cite: S.Hirata, J.Phys.Chem.A 107, 9887 (2003).
              ======================================================

            General Information
            -------------------
      Number of processors :     1
         Wavefunction type : Restricted Hartree-Fock
          No. of electrons :    10
           Alpha electrons :     5
            Beta electrons :     5
           No. of orbitals :    38
            Alpha orbitals :    19
             Beta orbitals :    19
        Alpha frozen cores :     0
         Beta frozen cores :     0
     Alpha frozen virtuals :     0
      Beta frozen virtuals :     0
         Spin multiplicity : singlet 
    Number of AO functions :    19
       Number of AO shells :     9
        Use of symmetry is : off
      Symmetry adaption is : off
         Schwarz screening : 0.10D-09

          Correlation Information
          -----------------------
          Calculation type : Coupled-cluster singles & doubles                           
   Perturbative correction : none                                                        
            Max iterations :      100
        Residual threshold : 0.10D-07
     T(0) DIIS level shift : 0.00D+00
     L(0) DIIS level shift : 0.00D+00
     T(1) DIIS level shift : 0.00D+00
     L(1) DIIS level shift : 0.00D+00
     T(R) DIIS level shift : 0.00D+00
     T(I) DIIS level shift : 0.00D+00
   CC-T/L Amplitude update :  5-th order DIIS
                I/O scheme : Global Array Library
        L-threshold :  0.10D-07
        EOM-threshold :  0.10D-07
 no EOMCCSD initial starts read in
 TCE RESTART OPTIONS
 READ_INT:   F
 WRITE_INT:  F
 READ_TA:    F
 WRITE_TA:   F
 READ_XA:    F
 WRITE_XA:   F
 READ_IN3:   F
 WRITE_IN3:  F
 SLICE:      F
 D4D5:       F
 quantumc:   F
 qrotation:  F
 qducc:      T
 nacto:                         0
 nrotv:                         0
 nrot:                          0

            Memory Information
            ------------------
          Available GA space size is     402652823 doubles
          Available MA space size is     402651564 doubles

 Maximum block size        32 doubles

 tile_dim =     14

 Block   Spin    Irrep     Size     Offset   Alpha
 -------------------------------------------------
   1    alpha     a      5 doubles       0       1
   2    beta      a      5 doubles       5       1
   3    alpha     a     14 doubles      10       3
   4    beta      a     14 doubles      24       3

 Global array virtual files algorithm will be used

 Parallel file system coherency ......... OK

 Setting fock-build task_bf   :      -1
                    maxquartet:   10000
                    maxeri    :  129600
                    maxscr    :       0
                    intacc    : 0.0D+00
                    denscreen : T
                    dentol    : 1.0D-06

   0: nuse=   1(   1.0) avail=   434874Mb (out of   434874Mb) on .

 #quartets = 1.035D+03 #integrals = 4.841D+03 #direct =  0.0% #cached =100.0%


 Integral file          = ./tce_hf_1.8336.aoints.0
 Record size in doubles =  65536        No. of integs per rec  =  43688
 Max. records in memory =      2        Max. records in file   = 826260
 No. of bits per label  =      8        No. of bits per value  =     64


 Fock matrix recomputed
 1-e file size   =              361
 1-e file name   = ./tce_hf_1.8336.f1
 Cpu & wall time / sec            0.0            0.0
 4-electron integrals stored in orbital form

 v2    file size   =            64311
 4-index algorithm nr.  13 is used
 imaxsize =       30
 imaxsize ichop =        0
 Cpu & wall time / sec            0.1            0.1
 T1-number-of-tasks                    1

 t1 file size   =               70
 t1 file name   = ./tce_hf_1.8336.t1
 t1 file handle =       -998
 T2-number-of-boxes                    2

 t2 file size   =             9800
 t2 file name   = ./tce_hf_1.8336.t2
 t2 file handle =       -996

 CCSD iterations
 -----------------------------------------------------------------
 Iter          Residuum       Correlation     Cpu    Wall    V2*C2
 -----------------------------------------------------------------
    1   0.1582197568144  -0.2446198406876     0.0     0.0     0.0
    2   0.0549352508343  -0.2459607082987     0.0     0.0     0.0
    3   0.0322886885014  -0.2540603166550     0.0     0.0     0.0
    4   0.0173653028815  -0.2577534634166     0.0     0.0     0.0
    5   0.0115312666186  -0.2594984610806     0.0     0.0     0.0
 MICROCYCLE DIIS UPDATE:                    5                    5
    6   0.0027340038197  -0.2622514457066     0.0     0.0     0.0
    7   0.0011309413916  -0.2624665473024     0.0     0.0     0.0
    8   0.0005692781520  -0.2624773004110     0.0     0.0     0.0
    9   0.0002927914325  -0.2625203683322     0.0     0.0     0.0
   10   0.0001835290775  -0.2625353545430     0.0     0.0     0.0
 MICROCYCLE DIIS UPDATE:                   10                    5
   11   0.0000518882576  -0.2625655544731     0.0     0.0     0.0
   12   0.0000301577882  -0.2625726684539     0.0     0.0     0.0
   13   0.0000153196931  -0.2625714741980     0.0     0.0     0.0
   14   0.0000098010760  -0.2625740280417     0.0     0.0     0.0
   15   0.0000062061045  -0.2625731661619     0.0     0.0     0.0
 MICROCYCLE DIIS UPDATE:                   15                    5
   16   0.0000006598631  -0.2625739891225     0.0     0.0     0.0
   17   0.0000005554162  -0.2625739905249     0.0     0.0     0.0
   18   0.0000002036463  -0.2625740497943     0.0     0.0     0.0
   19   0.0000001936259  -0.2625740518101     0.0     0.0     0.0
   20   0.0000000765927  -0.2625740766759     0.0     0.0     0.0
 MICROCYCLE DIIS UPDATE:                   20                    5
   21   0.0000000132176  -0.2625740917638     0.0     0.0     0.0
   22   0.0000000043552  -0.2625740921707     0.0     0.0     0.0
 -----------------------------------------------------------------
 Iterations converged
 CCSD correlation energy / hartree =        -0.262574092170666
 CCSD total energy / hartree       =      -100.055176495714889

 Singles contributions
     6a   (alpha) ---     5a   (alpha)        0.1128147171

 Doubles contributions
     6a   (alpha)     6a   (beta ) ---     5a   (alpha)     5a   (beta )       -0.3697633952
 Ground state specification:
 exp(T)|Ref>~(1+T)|Ref>
 ------- a(p)+/a(q) strings ----------

 singles norm

 doubles norm

 Reference string
  0.92760575441141457      :(1a)+ (2a)+ (3a)+ (4a)+ (5a)+ (1b)+ (2b)+ (3b)+ (4b)+ (5b)+ |0>

 Singles strings
  0.10464758075592952      :(6a)+ (5a)  (1a)+ (2a)+ (3a)+ (4a)+ (5a)+ (1b)+ (2b)+ (3b)+ (4b)+ (5b)+ |0>
  0.10464758075592952      :(6b)+ (5b)  (1a)+ (2a)+ (3a)+ (4a)+ (5a)+ (1b)+ (2b)+ (3b)+ (4b)+ (5b)+ |0>

 Doubles strings
 -0.34299465311676913      :(6a)+ (6b)+ (5b)  (5a)  (1a)+ (2a)+ (3a)+ (4a)+ (5a)+ (1b)+ (2b)+ (3b)+ (4b)+ (5b)+ |0>
 -------------------------------------
 enrep_tce =    2.5974014185194614     
  EHF(total)         =       -99.79260240
  Shift (HFtot-HFA)  =         0.00000000
 ALL OCCUPIED ORBITALS ARE ACTIVE IN DUCC --> NO SHIFT
 Number of active orbitals                   10
 Number of active alpha electrons                    5
 Number of active beta electrons                    5
  nos                    10
  nvs                    28
 noas                     5
 nobs                     5
 nvas                    14
 nvbs                    14
 nactv                     5
 From DUCC CCSD corr. ene. -0.26257409217069666     
 From DUCC CCSD corr. ene.-e-part  0.16980355371939312     
 begin_one_electron_integrals
    1    1       -40.7058951465
    1    2         0.7547086605
    1    5        -0.0512891276
    1    6        -0.0653025699
    1    7         0.0397313388
    1    8         0.1585482697
    2    1         0.7547086605
    2    2        -9.1833721194
    2    5         0.2433859458
    2    6         0.3760013786
    2    7        -0.1616343793
    2    8        -0.5310496133
    3    3        -8.2970810980
    3    9         1.0287803031
    3   10         0.5323136819
    4    4        -8.2970810980
    4    9        -0.5323136819
    4   10         1.0287803031
    5    1        -0.0512891276
    5    2         0.2433859458
    5    5        -6.5855383793
    5    6         2.1574139206
    5    7         0.0941547368
    5    8        -1.0117821844
    6    1        -0.0653025699
    6    2         0.3760013786
    6    5         2.1574139206
    6    6        -4.5092223842
    6    7        -0.4280745156
    6    8         1.4841029396
    7    1         0.0397313388
    7    2        -0.1616343793
    7    5         0.0941547368
    7    6        -0.4280745156
    7    7        -2.1222599201
    7    8         0.1817922336
    8    1         0.1585482697
    8    2        -0.5310496133
    8    5        -1.0117821844
    8    6         1.4841029396
    8    7         0.1817922336
    8    8        -3.6126474882
    9    3         1.0287803031
    9    4        -0.5323136819
    9    9        -2.7137477590
   10    3         0.5323136819
   10    4         1.0287803031
   10   10        -2.7137477590
 end_one_electron_integrals
 begin_two_electron_integrals
    1    1    1    1        5.3567823437
    2    1    1    1       -0.5408175677
    2    2    1    1        1.2829634815
    2    1    2    1        0.0866831221
    2    2    2    1       -0.0245958426
    2    2    2    2        0.8922862958
    3    3    1    1        1.2347109221
    3    3    2    1       -0.0165350972
    3    3    2    2        0.8638066740
    3    1    3    1        0.0372513330
    3    2    3    1        0.0402480883
    3    2    3    2        0.1681490624
    3    3    3    3        0.8905181005
    4    4    1    1        1.2347109221
    4    4    2    1       -0.0165350972
    4    4    2    2        0.8638066740
    4    4    3    3        0.8079732489
    4    1    4    1        0.0372513330
    4    2    4    1        0.0402480883
    4    2    4    2        0.1681490624
    4    3    4    3        0.0391111148
    4    4    4    4        0.8905181005
    5    1    1    1        0.0399545734
    5    2    1    1       -0.0576612721
    5    5    1    1        0.9014169097
    5    1    2    1       -0.0063745421
    5    1    2    2        0.0020836044
    5    2    2    1        0.0020540053
    5    2    2    2       -0.0282195843
    5    5    2    1       -0.0101195793
    5    5    2    2        0.6702316030
    5    1    3    3        0.0012285317
    5    2    3    3       -0.0289507129
    5    3    3    1       -0.0026725917
    5    3    3    2       -0.0088507343
    5    5    3    3        0.6291630516
    5    1    4    4        0.0012285317
    5    2    4    4       -0.0289507129
    5    4    4    1       -0.0026725917
    5    4    4    2       -0.0088507343
    5    5    4    4        0.6291630516
    5    1    5    1        0.0231683749
    5    2    5    1        0.0249797256
    5    2    5    2        0.1170364278
    5    3    5    3        0.0268780135
    5    4    5    4        0.0268780135
    5    5    5    1       -0.0006333259
    5    5    5    2       -0.0060437255
    5    5    5    5        0.5936825038
    6    1    1    1        0.0492350798
    6    2    1    1       -0.0688647837
    6    5    1    1       -0.3748121060
    6    6    1    1        0.5727213190
    6    1    2    1       -0.0081980922
    6    1    2    2        0.0018660502
    6    2    2    1        0.0018232489
    6    2    2    2       -0.0398149848
    6    5    2    1        0.0041370259
    6    5    2    2       -0.2481767834
    6    6    2    1       -0.0052783378
    6    6    2    2        0.4562153109
    6    1    3    3        0.0011269263
    6    2    3    3       -0.0389667511
    6    3    3    1       -0.0032796992
    6    3    3    2       -0.0113994770
    6    5    3    3       -0.2270037671
    6    6    3    3        0.4360106528
    6    1    4    4        0.0011269263
    6    2    4    4       -0.0389667511
    6    4    4    1       -0.0032796992
    6    4    4    2       -0.0113994770
    6    5    4    4       -0.2270037671
    6    6    4    4        0.4360106528
    6    1    5    1       -0.0165095326
    6    1    5    2       -0.0192338759
    6    1    5    5        0.0019970493
    6    2    5    1       -0.0175612212
    6    2    5    2       -0.0741887582
    6    2    5    5       -0.0208638284
    6    3    5    3       -0.0192111029
    6    4    5    4       -0.0192111029
    6    5    5    1        0.0001615645
    6    5    5    2        0.0308075168
    6    5    5    5       -0.1314554312
    6    6    5    1        0.0046891029
    6    6    5    2        0.0256815366
    6    6    5    5        0.4712704445
    6    1    6    1        0.0135036100
    6    2    6    1        0.0131610531
    6    2    6    2        0.0576851245
    6    3    6    3        0.0191381788
    6    4    6    4        0.0191381788
    6    5    6    1       -0.0006019712
    6    5    6    2        0.0128302027
    6    5    6    5        0.1768859809
    6    6    6    1       -0.0025579221
    6    6    6    2       -0.0194440818
    6    6    6    5        0.0095500522
    6    6    6    6        0.4741927890
    7    1    1    1       -0.0306924432
    7    2    1    1        0.0350897335
    7    5    1    1       -0.0327918274
    7    6    1    1        0.0532706954
    7    7    1    1        0.2598701002
    7    1    2    1        0.0051899652
    7    1    2    2       -0.0012567640
    7    2    2    1       -0.0011371642
    7    2    2    2        0.0183306144
    7    5    2    1        0.0009837672
    7    5    2    2       -0.0117229223
    7    6    2    1       -0.0006478478
    7    6    2    2        0.0403071007
    7    7    2    1       -0.0001851661
    7    7    2    2        0.2580346617
    7    1    3    3       -0.0007626332
    7    2    3    3        0.0169858395
    7    3    3    1        0.0013907989
    7    3    3    2        0.0021453515
    7    5    3    3       -0.0116570623
    7    6    3    3        0.0367125491
    7    7    3    3        0.2525529514
    7    1    4    4       -0.0007626332
    7    2    4    4        0.0169858395
    7    4    4    1        0.0013907989
    7    4    4    2        0.0021453515
    7    5    4    4       -0.0116570623
    7    6    4    4        0.0367125491
    7    7    4    4        0.2525529514
    7    1    5    1       -0.0030037291
    7    1    5    2       -0.0025528851
    7    1    5    5       -0.0002401715
    7    2    5    1       -0.0016423845
    7    2    5    2       -0.0065701266
    7    2    5    5        0.0150197307
    7    3    5    3       -0.0022915470
    7    4    5    4       -0.0022915470
    7    5    5    1        0.0016567677
    7    5    5    2        0.0137160383
    7    5    5    5        0.0277735258
    7    6    5    1       -0.0000372611
    7    6    5    2        0.0085486140
    7    6    5    5        0.0757942723
    7    7    5    1        0.0022552571
    7    7    5    2        0.0369122079
    7    7    5    5        0.3495425812
    7    1    6    1        0.0015079024
    7    1    6    2        0.0019536283
    7    1    6    5        0.0000113562
    7    1    6    6       -0.0006353823
    7    2    6    1        0.0014877909
    7    2    6    2        0.0039441333
    7    2    6    5       -0.0050901277
    7    2    6    6        0.0112398383
    7    3    6    3        0.0018278787
    7    4    6    4        0.0018278787
    7    5    6    1       -0.0014575940
    7    5    6    2       -0.0015697490
    7    5    6    5        0.0490286582
    7    5    6    6        0.0603788787
    7    6    6    1        0.0001366997
    7    6    6    2        0.0014505081
    7    6    6    5        0.0431458041
    7    6    6    6        0.1025941490
    7    7    6    1       -0.0014999613
    7    7    6    2       -0.0040665472
    7    7    6    5        0.1204460878
    7    7    6    6        0.4371827061
    7    1    7    1        0.0006473928
    7    2    7    1        0.0001737628
    7    2    7    2        0.0025695190
    7    3    7    3        0.0017123985
    7    4    7    4        0.0017123985
    7    5    7    1       -0.0001499656
    7    5    7    2        0.0027738720
    7    5    7    5        0.0460706173
    7    6    7    1        0.0000015572
    7    6    7    2        0.0063441545
    7    6    7    5        0.0601154071
    7    6    7    6        0.0889044582
    7    7    7    1       -0.0002077954
    7    7    7    2        0.0084752350
    7    7    7    5        0.0956173615
    7    7    7    6        0.1331668387
    7    7    7    7        0.5086463843
    8    1    1    1       -0.1221116610
    8    2    1    1        0.1270726249
    8    5    1    1        0.2399927910
    8    6    1    1       -0.2788239643
    8    7    1    1       -0.0307925472
    8    8    1    1        0.6287626489
    8    1    2    1        0.0203578768
    8    1    2    2       -0.0047632837
    8    2    2    1       -0.0049666871
    8    2    2    2        0.0537880143
    8    5    2    1       -0.0067254176
    8    5    2    2        0.0954223709
    8    6    2    1        0.0066258839
    8    6    2    2       -0.1508659895
    8    7    2    1        0.0006163142
    8    7    2    2       -0.0184293568
    8    8    2    1       -0.0087633174
    8    8    2    2        0.4752014310
    8    1    3    3       -0.0028487877
    8    2    3    3        0.0535323117
    8    3    3    1        0.0067579175
    8    3    3    2        0.0156679293
    8    5    3    3        0.0876892603
    8    6    3    3       -0.1410754017
    8    7    3    3       -0.0158520163
    8    8    3    3        0.4547941646
    8    1    4    4       -0.0028487877
    8    2    4    4        0.0535323117
    8    4    4    1        0.0067579175
    8    4    4    2        0.0156679293
    8    5    4    4        0.0876892603
    8    6    4    4       -0.1410754017
    8    7    4    4       -0.0158520163
    8    8    4    4        0.4547941646
    8    1    5    1        0.0194586794
    8    1    5    2        0.0214639342
    8    1    5    5       -0.0033879270
    8    2    5    1        0.0132373006
    8    2    5    2        0.0283281211
    8    2    5    5        0.0189847542
    8    3    5    3        0.0073006781
    8    4    5    4        0.0073006781
    8    5    5    1        0.0015646307
    8    5    5    2       -0.0217401695
    8    5    5    5        0.0399939098
    8    6    5    1       -0.0045133841
    8    6    5    2       -0.0052800706
    8    6    5    5       -0.0967440053
    8    7    5    1        0.0002854527
    8    7    5    2       -0.0006570083
    8    7    5    5       -0.0184450517
    8    8    5    1        0.0100284000
    8    8    5    2        0.0604013170
    8    8    5    5        0.5100432473
    8    1    6    1       -0.0175104128
    8    1    6    2       -0.0141588744
    8    1    6    5        0.0011016078
    8    1    6    6        0.0022999785
    8    2    6    1       -0.0096808026
    8    2    6    2       -0.0338234443
    8    2    6    5       -0.0257852675
    8    2    6    6        0.0134970101
    8    3    6    3       -0.0117358320
    8    4    6    4       -0.0117358320
    8    5    6    1       -0.0003396614
    8    5    6    2       -0.0040684414
    8    5    6    5       -0.0584946700
    8    5    6    6        0.0328198921
    8    6    6    1        0.0022853049
    8    6    6    2        0.0188206854
    8    6    6    5        0.0880460709
    8    6    6    6       -0.0079742184
    8    7    6    1       -0.0002882768
    8    7    6    2        0.0004417755
    8    7    6    5        0.0113009545
    8    7    6    6        0.0027432169
    8    8    6    1       -0.0058565550
    8    8    6    2       -0.0351429268
    8    8    6    5        0.0263405951
    8    8    6    6        0.5088711090
    8    1    7    1       -0.0012419838
    8    1    7    2       -0.0017942466
    8    1    7    5        0.0016536817
    8    1    7    6       -0.0002563280
    8    1    7    7        0.0016338697
    8    2    7    1       -0.0017308169
    8    2    7    2       -0.0012244032
    8    2    7    5       -0.0036271276
    8    2    7    6       -0.0040284714
    8    2    7    7       -0.0100009642
    8    3    7    3        0.0002799819
    8    4    7    4        0.0002799819
    8    5    7    1       -0.0004346470
    8    5    7    2        0.0039745912
    8    5    7    5       -0.0173846626
    8    5    7    6       -0.0057823103
    8    5    7    7       -0.0190004135
    8    6    7    1        0.0007146341
    8    6    7    2       -0.0036807301
    8    6    7    5        0.0137401295
    8    6    7    6        0.0090531794
    8    6    7    7        0.0355371098
    8    7    7    1       -0.0000133485
    8    7    7    2       -0.0014053577
    8    7    7    5       -0.0004732112
    8    7    7    6        0.0033183928
    8    7    7    7        0.0046134051
    8    8    7    1       -0.0013470209
    8    8    7    2        0.0114109556
    8    8    7    5        0.0773945851
    8    8    7    6        0.1235513881
    8    8    7    7        0.4699568710
    8    1    8    1        0.0238554059
    8    2    8    1        0.0101768395
    8    2    8    2        0.0338830828
    8    3    8    3        0.0130836798
    8    4    8    4        0.0130836798
    8    5    8    1       -0.0003501527
    8    5    8    2        0.0266751427
    8    5    8    5        0.0754020346
    8    6    8    1       -0.0018848707
    8    6    8    2       -0.0172808344
    8    6    8    5       -0.0004980672
    8    6    8    6        0.0928856342
    8    7    8    1        0.0004072237
    8    7    8    2        0.0024565190
    8    7    8    5        0.0210278833
    8    7    8    6        0.0332344951
    8    7    8    7        0.0277356912
    8    8    8    1        0.0056346592
    8    8    8    2        0.0094431713
    8    8    8    5       -0.0019848289
    8    8    8    6       -0.0165438455
    8    8    8    7       -0.0087707245
    8    8    8    8        0.6169257155
    9    3    1    1       -0.2354818314
    9    4    1    1        0.1218435076
    9    9    1    1        0.4818252103
    9    3    2    1        0.0064289532
    9    3    2    2       -0.1023977800
    9    4    2    1       -0.0033264826
    9    4    2    2        0.0529828761
    9    9    2    1       -0.0052862571
    9    9    2    2        0.3909533246
    9    1    3    1       -0.0204103834
    9    1    3    2       -0.0195655275
    9    2    3    1       -0.0112528473
    9    2    3    2       -0.0258069735
    9    3    3    3       -0.1089969070
    9    4    3    3        0.0485894956
    9    5    3    1        0.0017469269
    9    5    3    2        0.0094848107
    9    6    3    1        0.0016435156
    9    6    3    2        0.0097366126
    9    7    3    1       -0.0009173870
    9    7    3    2       -0.0044032246
    9    8    3    1       -0.0036030657
    9    8    3    2       -0.0158263054
    9    9    3    3        0.3897040669
    9    1    4    1        0.0105607838
    9    1    4    2        0.0101236366
    9    2    4    1        0.0058224720
    9    2    4    2        0.0133530988
    9    3    4    3        0.0038415899
    9    3    4    4       -0.0939068781
    9    4    4    3       -0.0076655493
    9    4    4    4        0.0563974103
    9    5    4    1       -0.0009038986
    9    5    4    2       -0.0049076508
    9    6    4    1       -0.0008503913
    9    6    4    2       -0.0050379387
    9    7    4    1        0.0004746763
    9    7    4    2        0.0022783258
    9    8    4    1        0.0018643059
    9    8    4    2        0.0081888804
    9    9    4    3       -0.0067776093
    9    9    4    4        0.3801121510
    9    1    5    3        0.0013913448
    9    1    5    4       -0.0007199126
    9    2    5    3        0.0038734724
    9    2    5    4       -0.0020042203
    9    3    5    1       -0.0002772275
    9    3    5    2        0.0101642357
    9    3    5    5       -0.0543009480
    9    4    5    1        0.0001434437
    9    4    5    2       -0.0052592003
    9    4    5    5        0.0280965114
    9    5    5    3       -0.0000708280
    9    5    5    4        0.0000366480
    9    6    5    3        0.0061982143
    9    6    5    4       -0.0032070932
    9    7    5    3        0.0014448879
    9    7    5    4       -0.0007476170
    9    8    5    3       -0.0076856556
    9    8    5    4        0.0039767282
    9    9    5    1        0.0028530112
    9    9    5    2        0.0339034529
    9    9    5    5        0.4441276226
    9    1    6    3        0.0015305879
    9    1    6    4       -0.0007919600
    9    2    6    3        0.0026392758
    9    2    6    4       -0.0013656197
    9    3    6    1       -0.0006483471
    9    3    6    2        0.0068155773
    9    3    6    5        0.0434069751
    9    3    6    6       -0.0291644575
    9    4    6    1        0.0003354691
    9    4    6    2       -0.0035265304
    9    4    6    5       -0.0224597289
    9    4    6    6        0.0150903353
    9    5    6    3        0.0059832447
    9    5    6    4       -0.0030958631
    9    6    6    3       -0.0032261760
    9    6    6    4        0.0016692948
    9    7    6    3       -0.0000989532
    9    7    6    4        0.0000512006
    9    8    6    3        0.0058281950
    9    8    6    4       -0.0030156370
    9    9    6    1       -0.0012564153
    9    9    6    2       -0.0116807147
    9    9    6    5        0.0777652292
    9    9    6    6        0.4901876570
    9    1    7    3       -0.0007577501
    9    1    7    4        0.0003920767
    9    2    7    3       -0.0030576239
    9    2    7    4        0.0015820822
    9    3    7    1        0.0002700304
    9    3    7    2       -0.0059103667
    9    3    7    5        0.0073279162
    9    3    7    6       -0.0012901948
    9    3    7    7        0.0039644536
    9    4    7    1       -0.0001397197
    9    4    7    2        0.0030581544
    9    4    7    5       -0.0037916259
    9    4    7    6        0.0006675753
    9    4    7    7       -0.0020512960
    9    5    7    3        0.0008652347
    9    5    7    4       -0.0004476916
    9    6    7    3       -0.0010935504
    9    6    7    4        0.0005658272
    9    7    7    3        0.0005304377
    9    7    7    4       -0.0002744602
    9    8    7    3        0.0011155601
    9    8    7    4       -0.0005772155
    9    9    7    1       -0.0004863660
    9    9    7    2        0.0104956147
    9    9    7    5        0.0842620009
    9    9    7    6        0.1283343275
    9    9    7    7        0.4837199915
    9    1    8    3       -0.0034010978
    9    1    8    4        0.0017598032
    9    2    8    3       -0.0080228589
    9    2    8    4        0.0041512046
    9    3    8    1        0.0013389556
    9    3    8    2       -0.0173322718
    9    3    8    5       -0.0303728772
    9    3    8    6        0.0280364700
    9    3    8    7        0.0030814352
    9    3    8    8       -0.0261842929
    9    4    8    1       -0.0006928052
    9    4    8    2        0.0089681008
    9    4    8    5        0.0157155984
    9    4    8    6       -0.0145066896
    9    4    8    7       -0.0015944027
    9    4    8    8        0.0135483322
    9    5    8    3       -0.0071149154
    9    5    8    4        0.0036814146
    9    6    8    3        0.0024134803
    9    6    8    4       -0.0012487881
    9    7    8    3        0.0001032601
    9    7    8    4       -0.0000534290
    9    8    8    3       -0.0017466254
    9    8    8    4        0.0009037426
    9    9    8    1        0.0008201479
    9    9    8    2       -0.0014285893
    9    9    8    5       -0.0082977043
    9    9    8    6        0.0069487244
    9    9    8    7       -0.0011119604
    9    9    8    8        0.5367269022
    9    1    9    1        0.0135533394
    9    2    9    1        0.0072387239
    9    2    9    2        0.0172157456
    9    3    9    3        0.0456754297
    9    4    9    3       -0.0200499470
    9    4    9    4        0.0173000250
    9    5    9    1       -0.0011204954
    9    5    9    2        0.0026349163
    9    5    9    5        0.0364444877
    9    6    9    1       -0.0009231193
    9    6    9    2        0.0046355940
    9    6    9    5        0.0430673840
    9    6    9    6        0.0662450176
    9    7    9    1        0.0005477166
    9    7    9    2        0.0025681431
    9    7    9    5        0.0229942730
    9    7    9    6        0.0335712488
    9    7    9    7        0.0291437625
    9    8    9    1        0.0021107627
    9    8    9    2        0.0002533345
    9    8    9    5       -0.0035012298
    9    8    9    6        0.0017814168
    9    8    9    7        0.0011405134
    9    8    9    8        0.0314725548
    9    9    9    3       -0.0145527601
    9    9    9    4        0.0075299199
    9    9    9    9        0.5910652506
   10    3    1    1       -0.1218435076
   10    4    1    1       -0.2354818314
   10   10    1    1        0.4818252103
   10    3    2    1        0.0033264826
   10    3    2    2       -0.0529828761
   10    4    2    1        0.0064289532
   10    4    2    2       -0.1023977800
   10   10    2    1       -0.0052862571
   10   10    2    2        0.3909533246
   10    1    3    1       -0.0105607838
   10    1    3    2       -0.0101236366
   10    2    3    1       -0.0058224720
   10    2    3    2       -0.0133530988
   10    3    3    3       -0.0563974103
   10    4    3    3       -0.0939068781
   10    5    3    1        0.0009038986
   10    5    3    2        0.0049076508
   10    6    3    1        0.0008503913
   10    6    3    2        0.0050379387
   10    7    3    1       -0.0004746763
   10    7    3    2       -0.0022783258
   10    8    3    1       -0.0018643059
   10    8    3    2       -0.0081888804
   10    9    3    3        0.0067776093
   10   10    3    3        0.3801121510
   10    1    4    1       -0.0204103834
   10    1    4    2       -0.0195655275
   10    2    4    1       -0.0112528473
   10    2    4    2       -0.0258069735
   10    3    4    3       -0.0074244796
   10    3    4    4       -0.0485894956
   10    4    4    3       -0.0039663248
   10    4    4    4       -0.1089969070
   10    5    4    1        0.0017469269
   10    5    4    2        0.0094848107
   10    6    4    1        0.0016435156
   10    6    4    2        0.0097366126
   10    7    4    1       -0.0009173870
   10    7    4    2       -0.0044032246
   10    8    4    1       -0.0036030657
   10    8    4    2       -0.0158263054
   10    9    4    3        0.0047883235
   10    9    4    4       -0.0067776093
   10   10    4    3        0.0067776093
   10   10    4    4        0.3897040669
   10    1    5    3        0.0007199126
   10    1    5    4        0.0013913448
   10    2    5    3        0.0020042203
   10    2    5    4        0.0038734724
   10    3    5    1       -0.0001434437
   10    3    5    2        0.0052592003
   10    3    5    5       -0.0280965114
   10    4    5    1       -0.0002772275
   10    4    5    2        0.0101642357
   10    4    5    5       -0.0543009480
   10    5    5    3       -0.0000366480
   10    5    5    4       -0.0000708280
   10    6    5    3        0.0032070932
   10    6    5    4        0.0061982143
   10    7    5    3        0.0007476170
   10    7    5    4        0.0014448879
   10    8    5    3       -0.0039767282
   10    8    5    4       -0.0076856556
   10   10    5    1        0.0028530112
   10   10    5    2        0.0339034529
   10   10    5    5        0.4441276226
   10    1    6    3        0.0007919600
   10    1    6    4        0.0015305879
   10    2    6    3        0.0013656197
   10    2    6    4        0.0026392758
   10    3    6    1       -0.0003354691
   10    3    6    2        0.0035265304
   10    3    6    5        0.0224597289
   10    3    6    6       -0.0150903353
   10    4    6    1       -0.0006483471
   10    4    6    2        0.0068155773
   10    4    6    5        0.0434069751
   10    4    6    6       -0.0291644575
   10    5    6    3        0.0030958631
   10    5    6    4        0.0059832447
   10    6    6    3       -0.0016692948
   10    6    6    4       -0.0032261760
   10    7    6    3       -0.0000512006
   10    7    6    4       -0.0000989532
   10    8    6    3        0.0030156370
   10    8    6    4        0.0058281950
   10   10    6    1       -0.0012564153
   10   10    6    2       -0.0116807147
   10   10    6    5        0.0777652292
   10   10    6    6        0.4901876570
   10    1    7    3       -0.0003920767
   10    1    7    4       -0.0007577501
   10    2    7    3       -0.0015820822
   10    2    7    4       -0.0030576239
   10    3    7    1        0.0001397197
   10    3    7    2       -0.0030581544
   10    3    7    5        0.0037916259
   10    3    7    6       -0.0006675753
   10    3    7    7        0.0020512960
   10    4    7    1        0.0002700304
   10    4    7    2       -0.0059103667
   10    4    7    5        0.0073279162
   10    4    7    6       -0.0012901948
   10    4    7    7        0.0039644536
   10    5    7    3        0.0004476916
   10    5    7    4        0.0008652347
   10    6    7    3       -0.0005658272
   10    6    7    4       -0.0010935504
   10    7    7    3        0.0002744602
   10    7    7    4        0.0005304377
   10    8    7    3        0.0005772155
   10    8    7    4        0.0011155601
   10   10    7    1       -0.0004863660
   10   10    7    2        0.0104956147
   10   10    7    5        0.0842620009
   10   10    7    6        0.1283343275
   10   10    7    7        0.4837199915
   10    1    8    3       -0.0017598032
   10    1    8    4       -0.0034010978
   10    2    8    3       -0.0041512046
   10    2    8    4       -0.0080228589
   10    3    8    1        0.0006928052
   10    3    8    2       -0.0089681008
   10    3    8    5       -0.0157155984
   10    3    8    6        0.0145066896
   10    3    8    7        0.0015944027
   10    3    8    8       -0.0135483322
   10    4    8    1        0.0013389556
   10    4    8    2       -0.0173322718
   10    4    8    5       -0.0303728772
   10    4    8    6        0.0280364700
   10    4    8    7        0.0030814352
   10    4    8    8       -0.0261842929
   10    5    8    3       -0.0036814146
   10    5    8    4       -0.0071149154
   10    6    8    3        0.0012487881
   10    6    8    4        0.0024134803
   10    7    8    3        0.0000534290
   10    7    8    4        0.0001032601
   10    8    8    3       -0.0009037426
   10    8    8    4       -0.0017466254
   10   10    8    1        0.0008201479
   10   10    8    2       -0.0014285893
   10   10    8    5       -0.0082977043
   10   10    8    6        0.0069487244
   10   10    8    7       -0.0011119604
   10   10    8    8        0.5367269022
   10    3    9    3        0.0200499470
   10    3    9    4       -0.0014086688
   10    3    9    9       -0.0071051302
   10    4    9    3        0.0297840735
   10    4    9    4       -0.0200499470
   10    4    9    9       -0.0137317869
   10    9    9    3       -0.0002482523
   10    9    9    4       -0.0004797867
   10   10    9    3       -0.0137317869
   10   10    9    4        0.0071051302
   10   10    9    9        0.5318103906
   10    1   10    1        0.0135533394
   10    2   10    1        0.0072387239
   10    2   10    2        0.0172157456
   10    3   10    3        0.0173000250
   10    4   10    3        0.0200499470
   10    4   10    4        0.0456754297
   10    5   10    1       -0.0011204954
   10    5   10    2        0.0026349163
   10    5   10    5        0.0364444877
   10    6   10    1       -0.0009231193
   10    6   10    2        0.0046355940
   10    6   10    5        0.0430673840
   10    6   10    6        0.0662450176
   10    7   10    1        0.0005477166
   10    7   10    2        0.0025681431
   10    7   10    5        0.0229942730
   10    7   10    6        0.0335712488
   10    7   10    7        0.0291437625
   10    8   10    1        0.0021107627
   10    8   10    2        0.0002533345
   10    8   10    5       -0.0035012298
   10    8   10    6        0.0017814168
   10    8   10    7        0.0011405134
   10    8   10    8        0.0314725548
   10    9   10    3       -0.0003411865
   10    9   10    4        0.0001765374
   10    9   10    9        0.0296274300
   10   10   10    3       -0.0075299199
   10   10   10    4       -0.0145527601
   10   10   10   10        0.5910652506
 end_two_electron_integrals
 fcidump
      5.3567823437     1   1   1   1
     -0.5408175677     2   1   1   1
      0.0866831221     2   1   2   1
      1.2829634815     2   2   1   1
     -0.0245958426     2   2   2   1
      0.8922862958     2   2   2   2
      0.0372513330     3   1   3   1
      0.0402480883     3   2   3   1
      0.1681490624     3   2   3   2
      1.2347109221     3   3   1   1
     -0.0165350972     3   3   2   1
      0.8638066740     3   3   2   2
      0.8905181005     3   3   3   3
      0.0372513330     4   1   4   1
      0.0402480883     4   2   4   1
      0.1681490624     4   2   4   2
      0.0391111148     4   3   4   3
      1.2347109221     4   4   1   1
     -0.0165350972     4   4   2   1
      0.8638066740     4   4   2   2
      0.8079732489     4   4   3   3
      0.8905181005     4   4   4   4
      0.0399545734     5   1   1   1
     -0.0063745421     5   1   2   1
      0.0020836044     5   1   2   2
      0.0012285317     5   1   3   3
      0.0012285317     5   1   4   4
      0.0231683749     5   1   5   1
     -0.0576612721     5   2   1   1
      0.0020540053     5   2   2   1
     -0.0282195843     5   2   2   2
     -0.0289507129     5   2   3   3
     -0.0289507129     5   2   4   4
      0.0249797256     5   2   5   1
      0.1170364278     5   2   5   2
     -0.0026725917     5   3   3   1
     -0.0088507343     5   3   3   2
      0.0268780135     5   3   5   3
     -0.0026725917     5   4   4   1
     -0.0088507343     5   4   4   2
      0.0268780135     5   4   5   4
      0.9014169097     5   5   1   1
     -0.0101195793     5   5   2   1
      0.6702316030     5   5   2   2
      0.6291630516     5   5   3   3
      0.6291630516     5   5   4   4
     -0.0006333259     5   5   5   1
     -0.0060437255     5   5   5   2
      0.5936825038     5   5   5   5
      0.0492350798     6   1   1   1
     -0.0081980922     6   1   2   1
      0.0018660502     6   1   2   2
      0.0011269263     6   1   3   3
      0.0011269263     6   1   4   4
     -0.0165095326     6   1   5   1
     -0.0192338759     6   1   5   2
      0.0019970493     6   1   5   5
      0.0135036100     6   1   6   1
     -0.0688647837     6   2   1   1
      0.0018232489     6   2   2   1
     -0.0398149848     6   2   2   2
     -0.0389667511     6   2   3   3
     -0.0389667511     6   2   4   4
     -0.0175612212     6   2   5   1
     -0.0741887582     6   2   5   2
     -0.0208638284     6   2   5   5
      0.0131610531     6   2   6   1
      0.0576851245     6   2   6   2
     -0.0032796992     6   3   3   1
     -0.0113994770     6   3   3   2
     -0.0192111029     6   3   5   3
      0.0191381788     6   3   6   3
     -0.0032796992     6   4   4   1
     -0.0113994770     6   4   4   2
     -0.0192111029     6   4   5   4
      0.0191381788     6   4   6   4
     -0.3748121060     6   5   1   1
      0.0041370259     6   5   2   1
     -0.2481767834     6   5   2   2
     -0.2270037671     6   5   3   3
     -0.2270037671     6   5   4   4
      0.0001615645     6   5   5   1
      0.0308075168     6   5   5   2
     -0.1314554312     6   5   5   5
     -0.0006019712     6   5   6   1
      0.0128302027     6   5   6   2
      0.1768859809     6   5   6   5
      0.5727213190     6   6   1   1
     -0.0052783378     6   6   2   1
      0.4562153109     6   6   2   2
      0.4360106528     6   6   3   3
      0.4360106528     6   6   4   4
      0.0046891029     6   6   5   1
      0.0256815366     6   6   5   2
      0.4712704445     6   6   5   5
     -0.0025579221     6   6   6   1
     -0.0194440818     6   6   6   2
      0.0095500522     6   6   6   5
      0.4741927890     6   6   6   6
     -0.0306924432     7   1   1   1
      0.0051899652     7   1   2   1
     -0.0012567640     7   1   2   2
     -0.0007626332     7   1   3   3
     -0.0007626332     7   1   4   4
     -0.0030037291     7   1   5   1
     -0.0025528851     7   1   5   2
     -0.0002401715     7   1   5   5
      0.0015079024     7   1   6   1
      0.0019536283     7   1   6   2
      0.0000113562     7   1   6   5
     -0.0006353823     7   1   6   6
      0.0006473928     7   1   7   1
      0.0350897335     7   2   1   1
     -0.0011371642     7   2   2   1
      0.0183306144     7   2   2   2
      0.0169858395     7   2   3   3
      0.0169858395     7   2   4   4
     -0.0016423845     7   2   5   1
     -0.0065701266     7   2   5   2
      0.0150197307     7   2   5   5
      0.0014877909     7   2   6   1
      0.0039441333     7   2   6   2
     -0.0050901277     7   2   6   5
      0.0112398383     7   2   6   6
      0.0001737628     7   2   7   1
      0.0025695190     7   2   7   2
      0.0013907989     7   3   3   1
      0.0021453515     7   3   3   2
     -0.0022915470     7   3   5   3
      0.0018278787     7   3   6   3
      0.0017123985     7   3   7   3
      0.0013907989     7   4   4   1
      0.0021453515     7   4   4   2
     -0.0022915470     7   4   5   4
      0.0018278787     7   4   6   4
      0.0017123985     7   4   7   4
     -0.0327918274     7   5   1   1
      0.0009837672     7   5   2   1
     -0.0117229223     7   5   2   2
     -0.0116570623     7   5   3   3
     -0.0116570623     7   5   4   4
      0.0016567677     7   5   5   1
      0.0137160383     7   5   5   2
      0.0277735258     7   5   5   5
     -0.0014575940     7   5   6   1
     -0.0015697490     7   5   6   2
      0.0490286582     7   5   6   5
      0.0603788787     7   5   6   6
     -0.0001499656     7   5   7   1
      0.0027738720     7   5   7   2
      0.0460706173     7   5   7   5
      0.0532706954     7   6   1   1
[...]
 tce:printtol                          double[1]      Tue Jul 30 17:28:21 2019 
 tce:restart_ccsd_t                       int[1]      Tue Jul 30 17:28:21 2019 
 scf:nclosed                              int[1]      Tue Jul 30 17:28:21 2019 
 geometry:geometry:atomct              double[2]      Tue Jul 30 17:28:21 2019 
 scf:nmo                                  int[1]      Tue Jul 30 17:28:21 2019 
 tce:nroots_restart                       int[1]      Tue Jul 30 17:28:21 2019 
 tce:leftresp                         logical[1]      Tue Jul 30 17:28:21 2019 
 :print                                  char[5]      Tue Jul 30 17:28:21 2019 
 task:theory                             char[4]      Tue Jul 30 17:28:21 2019 
 tce:skip_l                           logical[1]      Tue Jul 30 17:28:21 2019 
 tce:maxs                                 int[1]      Tue Jul 30 17:28:21 2019 
 task:cputime                          double[1]      Tue Jul 30 17:28:32 2019 
 task:walltime                         double[1]      Tue Jul 30 17:28:32 2019 
 tce:ioalg                                int[1]      Tue Jul 30 17:28:21 2019 
 tce:bfreq                             double[1]      Tue Jul 30 17:28:21 2019 
 tce:damp                              double[1]      Tue Jul 30 17:28:21 2019 
 geometry:geometry:efield              double[3]      Tue Jul 30 17:28:21 2019 
 tce:fragment                             int[1]      Tue Jul 30 17:28:21 2019 
 tce:multipole                            int[1]      Tue Jul 30 17:28:21 2019 
 geometry:geometry:use_primitive        logical[1]      Tue Jul 30 17:28:21 2019 
 tce:save_lr                          logical[8]      Tue Jul 30 17:28:21 2019 
 tce:skip_lr                          logical[1]      Tue Jul 30 17:28:21 2019 
 tce:reference                            int[1]      Tue Jul 30 17:28:21 2019 
 tce:restart_ignore_failure           logical[4]      Tue Jul 30 17:28:21 2019 
 tce:guess_lr_real                    logical[1]      Tue Jul 30 17:28:21 2019 
 basis:ao basis:tags info                 int[280]    Tue Jul 30 17:28:21 2019 
 tce:skip_t                           logical[1]      Tue Jul 30 17:28:21 2019 
 tce:hbard                                int[1]      Tue Jul 30 17:28:21 2019 
 tce:diagnt1                          logical[1]      Tue Jul 30 17:28:21 2019 
 tce:read_integrals                   logical[5]      Tue Jul 30 17:28:21 2019 
 tce:bnumfreq                             int[1]      Tue Jul 30 17:28:21 2019 
 tce:ccsdvar                             char[5]      Tue Jul 30 17:28:21 2019 
 tce:lineresp                         logical[1]      Tue Jul 30 17:28:21 2019 
 tce:save_l                           logical[4]      Tue Jul 30 17:28:21 2019 
 tce:ichopx                               int[1]      Tue Jul 30 17:28:21 2019 
 tce:nogamma                          logical[1]      Tue Jul 30 17:28:21 2019 
 scf:dipole                            double[3]      Tue Jul 30 17:28:21 2019 
 geometry:ngeom                           int[1]      Tue Jul 30 17:28:21 2019 
 tce:uact                                 int[1]      Tue Jul 30 17:28:21 2019 
 tce:save_tr                          logical[8]      Tue Jul 30 17:28:21 2019 
 geometry:geometry:operators           double[2304]   Tue Jul 30 17:28:21 2019 
 tce:zlshiftl                          double[1]      Tue Jul 30 17:28:21 2019 
 tce:skip_tr                          logical[1]      Tue Jul 30 17:28:21 2019 
 basis:ao basis:star nr tags              int[1]      Tue Jul 30 17:28:21 2019 
 tce:anumfreq                             int[1]      Tue Jul 30 17:28:21 2019 
 tce:save_t                           logical[4]      Tue Jul 30 17:28:21 2019 
 geometry:geometry:recip vectors         double[3]      Tue Jul 30 17:28:21 2019 
 tce:model                               char[5]      Tue Jul 30 17:28:21 2019 
 tce:maxiter                              int[1]      Tue Jul 30 17:28:21 2019 
 tce:symmetry                         logical[1]      Tue Jul 30 17:28:21 2019 
 tce:save_x                           logical[4]      Tue Jul 30 17:28:21 2019 
 geometry:geometry:no. unique centers            int[1]      Tue Jul 30 17:28:21 2019 
 basis:ao basis:contraction info            int[90000]  Tue Jul 30 17:28:21 2019 
 tce:save_y                           logical[4]      Tue Jul 30 17:28:21 2019 
 basis:ao basis:bs_nr_tags                int[1]      Tue Jul 30 17:28:21 2019 
 geometry:geometry:group number            int[1]      Tue Jul 30 17:28:21 2019 
 tce:nactv                                int[1]      Tue Jul 30 17:28:21 2019 
 tce:active_va                            int[1]      Tue Jul 30 17:28:21 2019 
 geometry:geometry:recip angles         double[3]      Tue Jul 30 17:28:21 2019 
 tce:active_vb                            int[1]      Tue Jul 30 17:28:21 2019 
 tce:active_oa                            int[1]      Tue Jul 30 17:28:21 2019 
 tce:active_ob                            int[1]      Tue Jul 30 17:28:21 2019 
 tce:thresh                            double[1]      Tue Jul 30 17:28:21 2019 
 geometry:geometry:system type            int[1]      Tue Jul 30 17:28:21 2019 
 tce:energy                            double[1]      Tue Jul 30 17:28:32 2019 
 tce:nopolar                          logical[1]      Tue Jul 30 17:28:21 2019 
 basis:ao basis:bs_stdname               char[16]     Tue Jul 30 17:28:21 2019 
 geometry:geometry:charges             double[2]      Tue Jul 30 17:28:21 2019 
 tce:respaxis                         logical[3]      Tue Jul 30 17:28:21 2019 
 tce:perturbative                        char[5]      Tue Jul 30 17:28:21 2019 
 scf:multiplicity                        char[8]      Tue Jul 30 17:28:21 2019 
 scf:output vectors                      char[23]     Tue Jul 30 17:28:21 2019 
 basis:ao basis:header                    int[7]      Tue Jul 30 17:28:21 2019 
 geometry:geometry:tags                  char[4]      Tue Jul 30 17:28:21 2019 
 scf:input vectors                       char[23]     Tue Jul 30 17:28:21 2019 
 geometry:geometry:include_bqbq        logical[1]      Tue Jul 30 17:28:21 2019 
 tce:qducc                            logical[1]      Tue Jul 30 17:28:21 2019 
 geometry:geometry:group name            char[3]      Tue Jul 30 17:28:21 2019 
 tce:model2e                             char[6]      Tue Jul 30 17:28:21 2019 
 tce:eactmax                           double[1]      Tue Jul 30 17:28:21 2019 
 tce:zlshift2                          double[2]      Tue Jul 30 17:28:21 2019 
 tce:eactmin                           double[1]      Tue Jul 30 17:28:21 2019 
 basisprint:ao basis                  logical[1]      Tue Jul 30 17:28:21 2019 
 tce:oact                                 int[1]      Tue Jul 30 17:28:21 2019 
 tce:zlshift3                          double[2]      Tue Jul 30 17:28:21 2019 
 tce:densmat                          logical[1]      Tue Jul 30 17:28:21 2019 
 tce:nroots                               int[1]      Tue Jul 30 17:28:21 2019 
 scf:converged                        logical[1]      Tue Jul 30 17:28:21 2019 
 scf:nelec                                int[1]      Tue Jul 30 17:28:21 2019 
 tce:maxdiff                           double[1]      Tue Jul 30 17:28:21 2019 
 tce:guess_qr_real                    logical[1]      Tue Jul 30 17:28:21 2019 
 basis:ao basis:number of exps and coeffs            int[1]      Tue Jul 30 17:28:21 2019 
 geometry:names                          char[9]      Tue Jul 30 17:28:21 2019 
 geometry:geometry:masses              double[2]      Tue Jul 30 17:28:21 2019 
 tce:zlshift                           double[1]      Tue Jul 30 17:28:21 2019 
 tce:eoms                                 int[1]      Tue Jul 30 17:28:21 2019 
 tce:ampnorms                         logical[1]      Tue Jul 30 17:28:21 2019 
 scf:scftype                             char[4]      Tue Jul 30 17:28:21 2019 
 tce:diis2                                int[1]      Tue Jul 30 17:28:21 2019 
 tce:read_l                           logical[4]      Tue Jul 30 17:28:21 2019 
 tce:enegr                             double[1]      Tue Jul 30 17:28:32 2019 
 basis:ao basis:exps and coeffs         double[54]     Tue Jul 30 17:28:21 2019 
 tce:diis3                                int[1]      Tue Jul 30 17:28:21 2019 
 geometry:geometry:unique centers            int[2]      Tue Jul 30 17:28:21 2019 
 tce:read_lr                          logical[8]      Tue Jul 30 17:28:21 2019 
 geometry:geometry:amatrix             double[9]      Tue Jul 30 17:28:21 2019 
 geometry:geometry:inv nuc expon         double[2]      Tue Jul 30 17:28:21 2019 
 geometry:geometry:vel                 double[6]      Tue Jul 30 17:28:21 2019 
 task:status                          logical[1]      Tue Jul 30 17:28:32 2019 
 geometry:geometry:direct volume         double[1]      Tue Jul 30 17:28:21 2019 
 tce:afreq                             double[1]      Tue Jul 30 17:28:21 2019 
 geometry:geometry:num_operators            int[1]      Tue Jul 30 17:28:21 2019 
 tce:read_t                           logical[4]      Tue Jul 30 17:28:21 2019 
 tce:save_interval                        int[1]      Tue Jul 30 17:28:21 2019 
 basis:nbasis                             int[1]      Tue Jul 30 17:28:21 2019 
 file_prefix                             char[14]     Tue Jul 30 17:28:21 2019 
 geometry:geometry:primitive_center           char[2]      Tue Jul 30 17:28:21 2019 
 task:energy                           double[1]      Tue Jul 30 17:28:32 2019 
 geometry:geometry:ncenter                int[1]      Tue Jul 30 17:28:21 2019 
 tce:idiskx                               int[1]      Tue Jul 30 17:28:21 2019 
 tce:damp2                             double[1]      Tue Jul 30 17:28:21 2019 
 tce:quadresp                         logical[1]      Tue Jul 30 17:28:21 2019 
 tce:damp3                             double[1]      Tue Jul 30 17:28:21 2019 
 scf:thresh                            double[1]      Tue Jul 30 17:28:21 2019 
 scf:energy                            double[1]      Tue Jul 30 17:28:21 2019 
 tce:read_tr                          logical[8]      Tue Jul 30 17:28:21 2019 
 tce:read_x                           logical[4]      Tue Jul 30 17:28:21 2019 
 basis:ao basis:assoc ecp name           char[4]      Tue Jul 30 17:28:21 2019 
 tce:read_y                           logical[4]      Tue Jul 30 17:28:21 2019 
 geometry:geometry:zmt_source            char[2]      Tue Jul 30 17:28:21 2019 
 geometry:geometry:setting number            int[1]      Tue Jul 30 17:28:21 2019 
 tce:act_excit_lvl                        int[1]      Tue Jul 30 17:28:21 2019 
 basis:ao basis:bs_tags                  char[4]      Tue Jul 30 17:28:21 2019 
 tce:i4im                                 int[1]      Tue Jul 30 17:28:21 2019 
 scf:tol2e                             double[1]      Tue Jul 30 17:28:21 2019 
 tce:diis                                 int[1]      Tue Jul 30 17:28:21 2019 
 tce:recompf                          logical[1]      Tue Jul 30 17:28:21 2019 
 rtdb:stored:state                    logical[3]      Tue Jul 30 17:28:21 2019 
 scf:alpha irreps                         int[19]     Tue Jul 30 17:28:21 2019 
 tce:module                              char[4]      Tue Jul 30 17:28:21 2019 
 tce:target                               int[1]      Tue Jul 30 17:28:21 2019 
 tce:left                             logical[1]      Tue Jul 30 17:28:21 2019 


 HDBM usage statistics
 ---------------------
 Reads         = 1712
 Inserts       = 928
 Replaces      = 320
 Extracts      = 0
 Deletes       = 1842
 Reuses        = 16

 Memory allocs = 8515
 Memory frees  = 8515
 Memory max    = 1512932
 Memory in use = 0

 IO seeks      = 3442
 IO reads      = 2493
 IO writes     = 2803
 IO nread      = 3034947
 IO nwrite     = 2275903

 Summary of allocated global arrays
-----------------------------------
  No active global arrays



                         GA Statistics for process    0
                         ------------------------------

       create   destroy   get      put      acc     scatter   gather  read&inc
calls: 2831     2831     8852     3475     4981        0        0     5924     
number of processes/call -3.82e+14 -1.89e+15 2.02e+13 0.00e+00 0.00e+00
bytes total:             2.53e+08 1.27e+07 6.13e+07 0.00e+00 0.00e+00 4.74e+04
bytes remote:            0.00e+00 0.00e+00 0.00e+00 0.00e+00 0.00e+00 0.00e+00
Max memory consumed for GA by this process: 1663800 bytes

MA_summarize_allocated_blocks: starting scan ...
MA_summarize_allocated_blocks: scan completed: 0 heap blocks, 0 stack blocks
MA usage statistics:

	allocation statistics:
					      heap	     stack
					      ----	     -----
	current number of blocks	         0	         0
	maximum number of blocks	        17	        40
	current total bytes		         0	         0
	maximum total bytes		   1060368	  55520424
	maximum total K-bytes		      1061	     55521
	maximum total M-bytes		         2	        56

	calls per routine:
		        39  MA_alloc_get
		        39  MA_allocate_heap
		       190  MA_chop_stack
		        39  MA_free_heap
		         0  MA_free_heap_piece
		     20968  MA_get_index
		         5  MA_get_mbase
		         0  MA_get_next_memhandle
		         0  MA_get_numalign
		        55  MA_get_pointer
		         1  MA_init
		         0  MA_initialized
		         0  MA_init_memhandle_iterator
		       302  MA_inquire_avail
		         1  MA_inquire_heap
		         0  MA_inquire_heap_check_stack
		         0  MA_inquire_heap_no_partition
		         1  MA_inquire_stack
		         0  MA_inquire_stack_check_heap
		         0  MA_inquire_stack_no_partition
		     20714  MA_pop_stack
		         1  MA_print_stats
		     20929  MA_push_get
		     20984  MA_push_stack
		         3  MA_set_auto_verify
		         1  MA_set_error_print
		         3  MA_set_hard_fail
		         1  MA_set_numalign
		      9037  MA_sizeof
		        28  MA_sizeof_overhead
		         1  MA_summarize_allocated_blocks
		         0  MA_trace
		     72354  MA_verify_allocator_stuff


                                     CITATION
                                     --------
                Please cite the following reference when publishing
                           results obtained with NWChem:

                 M. Valiev, E.J. Bylaska, N. Govind, K. Kowalski,
              T.P. Straatsma, H.J.J. van Dam, D. Wang, J. Nieplocha,
                        E. Apra, T.L. Windus, W.A. de Jong
                 "NWChem: a comprehensive and scalable open-source
                  solution for large scale molecular simulations"
                      Comput. Phys. Commun. 181, 1477 (2010)
                           doi:10.1016/j.cpc.2010.04.018

                                      AUTHORS
                                      -------
          E. Apra, E. J. Bylaska, W. A. de Jong, N. Govind, K. Kowalski,
       T. P. Straatsma, M. Valiev, H. J. J. van Dam, D. Wang, T. L. Windus,
        J. Hammond, J. Autschbach, K. Bhaskaran-Nair, J. Brabec, K. Lopata,
    S. A. Fischer, S. Krishnamoorthy, M. Jacquelin, W. Ma, M. Klemm, O. Villa,
      Y. Chen, V. Anisimov, F. Aquino, S. Hirata, M. T. Hackler, V. Konjkov,
            D. Mejia-Rodriguez, T. Risthaus, M. Malagoli, A. Marenich,
   A. Otero-de-la-Roza, J. Mullin, P. Nichols, R. Peverati, J. Pittner, Y. Zhao,
        P.-D. Fan, A. Fonari, M. J. Williamson, R. J. Harrison, J. R. Rehr,
      M. Dupuis, D. Silverstein, D. M. A. Smith, J. Nieplocha, V. Tipparaju,
    M. Krishnan, B. E. Van Kuiken, A. Vazquez-Mayagoitia, L. Jensen, M. Swart,
      Q. Wu, T. Van Voorhis, A. A. Auer, M. Nooijen, L. D. Crosby, E. Brown,
      G. Cisneros, G. I. Fann, H. Fruchtl, J. Garza, K. Hirao, R. A. Kendall,
      J. A. Nichols, K. Tsemekhman, K. Wolinski, J. Anchell, D. E. Bernholdt,
      P. Borowski, T. Clark, D. Clerc, H. Dachsel, M. J. O. Deegan, K. Dyall,
    D. Elwood, E. Glendening, M. Gutowski, A. C. Hess, J. Jaffe, B. G. Johnson,
     J. Ju, R. Kobayashi, R. Kutteh, Z. Lin, R. Littlefield, X. Long, B. Meng,
      T. Nakajima, S. Niu, L. Pollack, M. Rosing, K. Glaesemann, G. Sandrone,
      M. Stave, H. Taylor, G. Thomas, J. H. van Lenthe, A. T. Wong, Z. Zhang.

                                    REFERENCES
                                    ----------

          Where appropriate, please cite the following reference(s) 
          when publishing results obtained with NWChem:


     1. D. E. Bernholdt, E. Apra, H. A. Fruchtl, M.F. Guest, R. J. Harrison, 
        R. A. Kendall, R. A. Kutteh, X. Long, J. B. Nicholas, J. A. Nichols, 
        H. L. Taylor, A. T. Wong, G. I. Fann, R. J. Littlefield and
        J. Nieplocha,
        "Parallel Computational Chemistry Made Easier: 
        The Development of NWChem,"
        Int. J. Quantum Chem. Symposium  29, 475-483 (1995).


     2. M. F. Guest, E. Apra, D. E. Bernholdt, H. A. Fruchtl, R. J. Harrison, 
        R. A. Kendall, R. A. Kutteh, X. Long, J. B. Nicholas, J. A. Nichols, 
        H. L. Taylor, A. T. Wong, G. I. Fann, R. J. Littlefield and
        J. Nieplocha,
        "High Performance Computational Chemistry: NWChem and Fully Distributed
        Parallel Applications", in Advances in Parallel Computing, 10, High
        Performance Computing: Technology, Methods, and Applications, Eds. 
        J. Dongarra, L. Gradinetti, G. Joubert, and J. Kowalik, 
        (Elsevier Science B. V. pp. 395-427, 1995).


     3. M. F. Guest, E. Apra, D. E. Bernholdt, H. A. Fruchtl, R. J. Harrison, 
        R. A. Kendall, R. A. Kutteh, J. B. Nicholas, J. A. Nichols, M. S. Stave,
        A. T. Wong, R. J. Littlefield and J. Nieplocha, "High Performance 
        Computational Chemistry: Towards Fully Distributed Parallel Algorithms",
        in High Performance Computing: Symposium 1995, Grand Challenges in 
        Computer Simulation, Adrian M. Tentner, Editor, Proceedings of the 1995 
        Simulation Multiconference, April 9-13, 1995, Phoenix, Arizona, 
        Simulation Councils, Inc., The Society for Computer Simulation, 
        San Diego, CA, 1995. pp. 511-521.


     4. M. F. Guest, E. Apra, D. E. Bernholdt, H. A. Fruchtl, R. J. Harrison,
        R. A. Kendall, R. A. Kutteh, X. Long, J. B. Nicholas, J. A. Nichols, 
        H. L. Taylor, A. T. Wong, G. I. Fann, R. J. Littlefield and
        J. Nieplocha,
        "Advances in Parallel Distributed Data Software; Computational Chemistry
        and NWChem", in Applied Parallel Computing.  Computations in Physics,
        Chemistry, and Engineering Science, Eds. J. Wasnieski, J. Dongarra, and 
        K. Madsen, Lecture Notes in Computer Science, 1041,
        (Springer-Verlag, Berlin, 278-294, 1996).


     5. M. F. Guest, E. Apra, D. E. Bernholdt, H. A. Fruchtl, R. J. Harrison,
        R. A. Kendall, R. A. Kutteh, X. Long, J. B. Nicholas, J. A. Nichols, 
        H. L. Taylor, A. T. Wong, G. I. Fann, R. J. Littlefield and
        J. Nieplocha, 
        "High-Performance Computing in Chemistry; NWChem", Future 
        Generations Computer Systems  12(4), 273, (1996).


     6. R. A. Kendall, E. Apra, D. E. Bernholdt, E. J. Bylaska, M. Dupuis,
        G. I. Fann, R. J. Harrison, J. Ju, J. A. Nichols, J. Nieplocha,
        T. P. Straatsma, T. L. Windus, A. T. Wong,
        Computer Phys. Comm. 128, 260 (2000).


     7. T. P. Straatsma and V. Helms, in Molecular Dynamics on Parallel
        Computers2000, R. Esser et al. editors, p 70.


     8.  T. P. Straatsma, M. Philippopoulos and J. A. McCammon,
         Computer Phys. Comm. 128, 377 (2000).


     9.  M. Valiev, E. J. Bylaska, A. Gramada, and J. H. Weare,
         Reviews in Modern Quantum Chemistry, pages 1684-1734
         (World Scientific, Singapore, 2002).


    10.  E. J. Bylaska, M. Valiev, R. Kawai, and J. H. Weare,
         Computer Phys. Comm. 143, 11 (2002).


    11.  M. Valiev and J. H. Weare,
         J. Phys. Chem. A, 103, 10588 (1999).



 Total times  cpu:       11.2s     wall:       11.2s
