 argument  1 = originalHF.nw
  NWChem w/ OpenMP: maximum threads =    4



============================== echo of input deck ==============================
start tce_hf_0.82512

echo
memory total 6 gb
print high

geometry units angstrom
symmetry c1
H  0.0000000  0.0000  0.82512
F  0.0000000  0.0000  0.00000
end


basis spherical
H library cc-pvdz
F library cc-pvdz
end

scf
thresh 1.0e-10
tol2e 1.0e-10
singlet
rhf
end

tce
2eorb
2emet 13
thresh 1.0d-8
ccsd
end

set tce:qducc T
set tce:nactv 5

task tce energy

================================================================================


                                         
                                         


              Northwest Computational Chemistry Package (NWChem) 6.8
              ------------------------------------------------------


                    Environmental Molecular Sciences Laboratory
                       Pacific Northwest National Laboratory
                                Richland, WA 99352

                              Copyright (c) 1994-2018
                       Pacific Northwest National Laboratory
                            Battelle Memorial Institute

             NWChem is an open-source computational chemistry package
                        distributed under the terms of the
                      Educational Community License (ECL) 2.0
             A copy of the license is included with this distribution
                              in the LICENSE.TXT file

                                  ACKNOWLEDGMENT
                                  --------------

            This software and its documentation were developed at the
            EMSL at Pacific Northwest National Laboratory, a multiprogram
            national laboratory, operated for the U.S. Department of Energy
            by Battelle under Contract Number DE-AC05-76RL01830. Support
            for this work was provided by the Department of Energy Office
            of Biological and Environmental Research, Office of Basic
            Energy Sciences, and the Office of Advanced Scientific Computing.


           Job information
           ---------------

    hostname        = WE27583
    program         = /Users/lamm799/nwchem/bin/MACX64/nwchem
    date            = Tue Jul 30 17:21:35 2019

    compiled        = Mon_Jul_15_13:12:43_2019
    source          = /Users/lamm799/nwchem
    nwchem branch   = Development
    nwchem revision = nwchem_on_git-975-g459e4567d
    ga revision     = 5.7.0
    use scalapack   = F
    input           = originalHF.nw
    prefix          = tce_hf_0.82512.
    data base       = ./tce_hf_0.82512.db
    status          = startup
    nproc           =        1
    time left       =     -1s



           Memory information
           ------------------

    heap     =  201326588 doubles =   1536.0 Mbytes
    stack    =  201326593 doubles =   1536.0 Mbytes
    global   =  402653184 doubles =   3072.0 Mbytes (distinct from heap & stack)
    total    =  805306365 doubles =   6144.0 Mbytes
    verify   = yes
    hardfail = no 


           Directory information
           ---------------------

  0 permanent = .
  0 scratch   = .




                                NWChem Input Module
                                -------------------



 Scaling coordinates for geometry "geometry" by  1.889725989
 (inverse scale =  0.529177249)

 Turning off AUTOSYM since
 SYMMETRY directive was detected!

     MOLECULAR POINT GROUP NUMBER =  1     SCHOENFLIES SYMBOL = C1        

                --------------- GROUP GENERATORS ---------------

                      1 GENERATORS USED TO FORM THE GROUP

                         PT fold Rotoinversion Operator
                     1.000000  0.000000  0.000000  0.000000
                     0.000000  1.000000  0.000000  0.000000
                     0.000000  0.000000  1.000000  0.000000


The   1 symmetry operators (excl. E) are as follows:



                    ---------- FULL LISTING OF GROUP ----------

                  MATRIX REPRESENTATIONS OF THE GROUP OPERATORS

     EXCLUDING THE IDENTITY OPERATOR THERE ARE  1 OPERATORS IN THIS GROUP

                         pt fold Rotoinversion Operator
                     1.000000  0.000000  0.000000  0.000000
                     0.000000  1.000000  0.000000  0.000000
                     0.000000  0.000000  1.000000  0.000000


                  <<< SYMMETRY OPERATION/ATOM MAPPING BUILT >>>
      Symmetry information
      --------------------

 Group name             C1        
 Group number              1
 Group order               1
 No. of unique centers     2



                  Character table for group C1      

                  1e     
        a          1.000

      Symmetry unique atoms

     1    2

      Mapping of centers


      Group operations



          ------
          auto-z
          ------
  no constraints, skipping    0.0000000000000000     
 Imposing constraints:   iter = 1  dqmax = 0.0D+00
  no constraints, skipping    0.0000000000000000     


                             Geometry "geometry" -> ""
                             -------------------------

 Output coordinates in angstroms (scale by  1.889725989 to convert to a.u.)

  No.       Tag          Charge          X              Y              Z
 ---- ---------------- ---------- -------------- -------------- --------------
    1 H                    1.0000     0.00000000     0.00000000     0.74260800
    2 F                    9.0000     0.00000000     0.00000000    -0.08251200

      Atomic Mass 
      ----------- 

      H                  1.007825
      F                 18.998400


 Effective nuclear repulsion energy (a.u.)       5.7720031523

            Nuclear Dipole moment (a.u.) 
            ----------------------------
        X                 Y               Z
 ---------------- ---------------- ----------------
     0.0000000000     0.0000000000     0.0000000000



                                Z-matrix (autoz)
                                -------- 

 Units are Angstrom for bonds and degrees for angles

      Type          Name      I     J     K     L     M      Value
      ----------- --------  ----- ----- ----- ----- ----- ----------
    1 Stretch                  1     2                       0.82512


            XYZ format geometry
            -------------------
     2
 geometry
 H                     0.00000000     0.00000000     0.74260800
 F                     0.00000000     0.00000000    -0.08251200

 ==============================================================================
                                internuclear distances
 ------------------------------------------------------------------------------
       center one      |      center two      | atomic units |  angstroms
 ------------------------------------------------------------------------------
    2 F                |   1 H                |     1.55925  |     0.82512
 ------------------------------------------------------------------------------
                         number of included internuclear distances:          1
 ==============================================================================



                      Basis "ao basis" -> "" (spherical)
                      -----
  H (Hydrogen)
  ------------
            Exponent  Coefficients 
       -------------- ---------------------------------------------------------
  1 S  1.30100000E+01  0.019685
  1 S  1.96200000E+00  0.137977
  1 S  4.44600000E-01  0.478148

  2 S  1.22000000E-01  1.000000

  3 P  7.27000000E-01  1.000000

  F (Fluorine)
  ------------
            Exponent  Coefficients 
       -------------- ---------------------------------------------------------
  1 S  1.47100000E+04  0.000721
  1 S  2.20700000E+03  0.005553
  1 S  5.02800000E+02  0.028267
  1 S  1.42600000E+02  0.106444
  1 S  4.64700000E+01  0.286814
  1 S  1.67000000E+01  0.448641
  1 S  6.35600000E+00  0.264761
  1 S  1.31600000E+00  0.015333

  2 S  1.47100000E+04 -0.000165
  2 S  2.20700000E+03 -0.001308
  2 S  5.02800000E+02 -0.006495
  2 S  1.42600000E+02 -0.026691
  2 S  4.64700000E+01 -0.073690
  2 S  1.67000000E+01 -0.170776
  2 S  6.35600000E+00 -0.112327
  2 S  1.31600000E+00  0.562814

  3 S  3.89700000E-01  1.000000

  4 P  2.26700000E+01  0.044878
  4 P  4.97700000E+00  0.235718
  4 P  1.34700000E+00  0.508521

  5 P  3.47100000E-01  1.000000

  6 D  1.64000000E+00  1.000000



 Summary of "ao basis" -> "" (spherical)
 ------------------------------------------------------------------------------
       Tag                 Description            Shells   Functions and Types
 ---------------- ------------------------------  ------  ---------------------
 H                          cc-pvdz                  3        5   2s1p
 F                          cc-pvdz                  6       14   3s2p1d



 Setting fock-build task_bf   :      -1
                    maxquartet:   10000
                    maxeri    :  129600
                    maxscr    :       0
                    intacc    : 0.0D+00
                    denscreen : T
                    dentol    : 1.0D-06

                                 NWChem SCF Module
                                 -----------------



  ao basis        = "ao basis"
  functions       =    19
  atoms           =     2
  closed shells   =     5
  open shells     =     0
  charge          =   0.00
  wavefunction    = RHF 
  input vectors   = atomic
  output vectors  = ./tce_hf_0.82512.movecs
  use symmetry    = F
  symmetry adapt  = F


 Summary of "ao basis" -> "ao basis" (spherical)
 ------------------------------------------------------------------------------
       Tag                 Description            Shells   Functions and Types
 ---------------- ------------------------------  ------  ---------------------
 H                          cc-pvdz                  3        5   2s1p
 F                          cc-pvdz                  6       14   3s2p1d




                         Geometry "geometry" -> "geometry"
                         ---------------------------------

 Output coordinates in angstroms (scale by  1.889725989 to convert to a.u.)

  No.       Tag          Charge          X              Y              Z
 ---- ---------------- ---------- -------------- -------------- --------------
    1 H                    1.0000     0.00000000     0.00000000     0.74260800
    2 F                    9.0000     0.00000000     0.00000000    -0.08251200

      Atomic Mass 
      ----------- 

      H                  1.007825
      F                 18.998400


 Effective nuclear repulsion energy (a.u.)       5.7720031523

            Nuclear Dipole moment (a.u.) 
            ----------------------------
        X                 Y               Z
 ---------------- ---------------- ----------------
     0.0000000000     0.0000000000     0.0000000000



                                Z-matrix (autoz)
                                -------- 

 Units are Angstrom for bonds and degrees for angles

      Type          Name      I     J     K     L     M      Value
      ----------- --------  ----- ----- ----- ----- ----- ----------
    1 Stretch                  1     2                       0.82512


                      Basis "ao basis" -> "ao basis" (spherical)
                      -----
  H (Hydrogen)
  ------------
            Exponent  Coefficients 
       -------------- ---------------------------------------------------------
  1 S  1.30100000E+01  0.019685
  1 S  1.96200000E+00  0.137977
  1 S  4.44600000E-01  0.478148

  2 S  1.22000000E-01  1.000000

  3 P  7.27000000E-01  1.000000

  F (Fluorine)
  ------------
            Exponent  Coefficients 
       -------------- ---------------------------------------------------------
  1 S  1.47100000E+04  0.000721
  1 S  2.20700000E+03  0.005553
  1 S  5.02800000E+02  0.028267
  1 S  1.42600000E+02  0.106444
  1 S  4.64700000E+01  0.286814
  1 S  1.67000000E+01  0.448641
  1 S  6.35600000E+00  0.264761
  1 S  1.31600000E+00  0.015333

  2 S  1.47100000E+04 -0.000165
  2 S  2.20700000E+03 -0.001308
  2 S  5.02800000E+02 -0.006495
  2 S  1.42600000E+02 -0.026691
  2 S  4.64700000E+01 -0.073690
  2 S  1.67000000E+01 -0.170776
  2 S  6.35600000E+00 -0.112327
  2 S  1.31600000E+00  0.562814

  3 S  3.89700000E-01  1.000000

  4 P  2.26700000E+01  0.044878
  4 P  4.97700000E+00  0.235718
  4 P  1.34700000E+00  0.508521

  5 P  3.47100000E-01  1.000000

  6 D  1.64000000E+00  1.000000



    Basis function labels
    ---------------------
       No.  Atm El Type
       ---  --- -- ----
        1    1 H  s          
        2    1 H  s          
        3    1 H  px         
        4    1 H  py         
        5    1 H  pz         
        6    2 F  s          
        7    2 F  s          
        8    2 F  s          
        9    2 F  px         
       10    2 F  py         
       11    2 F  pz         
       12    2 F  px         
       13    2 F  py         
       14    2 F  pz         
       15    2 F  d -2       
       16    2 F  d -1       
       17    2 F  d  0       
       18    2 F  d  1       
       19    2 F  d  2       

 Schwarz integral screening summary 
 ---------------------------------- 

        No. of atom pairs =       3
       No. of shell pairs =      45

 Atomic screening 

   value      no.     value      no.     value      no.     value      no.   
  -------- ------    -------- ------    -------- ------    -------- ------   
  0.00D+00      0    1.00D-13      0    1.00D-12      0    1.00D-11      0
  1.00D-10      0    1.00D-09      0    1.00D-08      0    1.00D-07      0
  1.00D-06      0    1.00D-05      0    1.00D-04      0    1.00D-03      0
  1.00D-02      0    1.00D-01      0    1.00D+00      3    1.00D+01      0


 Shell screening 

   value      no.     value      no.     value      no.     value      no.   
  -------- ------    -------- ------    -------- ------    -------- ------   
  0.00D+00      0    1.00D-13      0    1.00D-12      0    1.00D-11      0
  1.00D-10      0    1.00D-09      0    1.00D-08      0    1.00D-07      0
  1.00D-06      0    1.00D-05      0    1.00D-04      0    1.00D-03      0
  1.00D-02      0    1.00D-01      9    1.00D+00     36    1.00D+01      0



 Forming initial guess at       0.0s


      Superposition of Atomic Density Guess
      -------------------------------------

 Sum of atomic energies:         -99.88314519

      Non-variational initial energy
      ------------------------------

 Total energy =     -99.959749
 1-e energy   =    -150.534748
 2-e energy   =      44.802996
 HOMO         =      -0.658974
 LUMO         =       0.137858


 Setting fock-build task_bf   :      -1
                    maxquartet:   10000
                    maxeri    :  129600
                    maxscr    :       0
                    intacc    : 0.0D+00
                    denscreen : T
                    dentol    : 1.0D-06


 Wrote molecular orbitals to ./tce_hf_0.82512.movecs


 Starting SCF solution at       0.1s

 ready to solve ...                    0


 ----------------------------------------------
         Quadratically convergent ROHF

 Convergence threshold     :          1.000E-10
 Maximum no. of iterations :           30
 Final Fock-matrix accuracy:          1.000E-10
 ----------------------------------------------

   0: nuse=   1(   1.0) avail=   434881Mb (out of   434881Mb) on .

 #quartets = 1.035D+03 #integrals = 4.841D+03 #direct =  0.0% #cached =100.0%


 Integral file          = ./tce_hf_0.82512.aoints.0
 Record size in doubles =  65536        No. of integs per rec  =  43688
 Max. records in memory =      2        Max. records in file   = 826273
 No. of bits per label  =      8        No. of bits per value  =     64


 Wrote rohf: cfock to ./tce_hf_0.82512.cfock


              iter       energy          gnorm     gmax       time
             ----- ------------------- --------- --------- --------
                 1      -99.9891886630  7.06D-01  3.70D-01      0.1

            ----- linear solve (tol: 1.0E-02 prod-acc: 8.4E-09) -----

               iter nbas    rnorm     rnorm-scal   ratio     time
               ---- ---- ----------- ----------- --------- -------
 rohf_wrap: in g_x =    1              0.70630846
 rohf_wrap: out g_x =    1              0.08194862
                  1    1  7.1957E-16  1.0188E-15    0.0000     0.1

                              ----- Line search ------

        step       energy         lsg     num-lsg   num-lsh   lsrat    time
      ------- ---------------- --------- --------- --------- ------- --------
       0.0000     -99.98918866 -5.43D-02  0.00D+00  0.00D+00 0.0D+00      0.1

 Wrote rohf: cfock to ./tce_hf_0.82512.cfock

       1.0000    -100.00705114  1.91D-02  1.88D-02  7.33D-02 3.5D-01      0.1

 Wrote rohf: cfock to ./tce_hf_0.82512.cfock

       0.7400    -100.00948758 -2.91D-04 -3.06D-04  7.44D-02 5.4D-03      0.2

              iter       energy          gnorm     gmax       time
             ----- ------------------- --------- --------- --------
                 2     -100.0094875832  1.42D-01  5.92D-02      0.2

            ----- linear solve (tol: 1.0E-01 prod-acc: 1.7E-08) -----

               iter nbas    rnorm     rnorm-scal   ratio     time
               ---- ---- ----------- ----------- --------- -------
 rohf_wrap: in g_x =    1              0.14231940
 rohf_wrap: out g_x =    1              0.01635352
                  1    1  4.3287E-02  3.0415E-01    0.0000     0.2
 rohf_wrap: in g_x =    1              0.04328696
 rohf_wrap: out g_x =    1              0.00522687
                  2    2  1.0057E-02  7.0667E-02    0.2323     0.2

                              ----- Line search ------

        step       energy         lsg     num-lsg   num-lsh   lsrat    time
      ------- ---------------- --------- --------- --------- ------- --------
       0.0000    -100.00948758 -2.34D-03  0.00D+00  0.00D+00 0.0D+00      0.2

 Wrote rohf: cfock to ./tce_hf_0.82512.cfock

       1.0000    -100.01067200 -2.80D-05 -2.70D-05  2.31D-03 1.2D-02      0.2

              iter       energy          gnorm     gmax       time
             ----- ------------------- --------- --------- --------
                 3     -100.0106719952  1.01D-02  4.33D-03      0.2

            ----- linear solve (tol: 1.0E-02 prod-acc: 1.2E-10) -----

               iter nbas    rnorm     rnorm-scal   ratio     time
               ---- ---- ----------- ----------- --------- -------
 rohf_wrap: in g_x =    1              0.01010717
 rohf_wrap: out g_x =    1              0.00107991
                  1    1  2.7984E-03  2.7687E-01    0.0000     0.2
 rohf_wrap: in g_x =    1              0.00279837
 rohf_wrap: out g_x =    1              0.00039418
                  2    2  8.6217E-04  8.5302E-02    0.3081     0.2
 rohf_wrap: in g_x =    1              0.00086217
 rohf_wrap: out g_x =    1              0.00010637
                  3    3  1.5099E-04  1.4939E-02    0.1751     0.2
 rohf_wrap: in g_x =    1              0.00015099
 rohf_wrap: out g_x =    1              0.00001866
                  4    4  1.7874E-05  1.7685E-03    0.1184     0.2

                              ----- Line search ------

        step       energy         lsg     num-lsg   num-lsh   lsrat    time
      ------- ---------------- --------- --------- --------- ------- --------
       0.0000    -100.01067200 -1.30D-05  0.00D+00  0.00D+00 0.0D+00      0.2

 Wrote rohf: cfock to ./tce_hf_0.82512.cfock

       1.0000    -100.01067851 -5.26D-09 -4.88D-09  1.30D-05 4.0D-04      0.2

              iter       energy          gnorm     gmax       time
             ----- ------------------- --------- --------- --------
                 4     -100.0106785094  1.87D-05  8.69D-06      0.2

            ----- linear solve (tol: 1.9E-05 prod-acc: 4.2E-16) -----

               iter nbas    rnorm     rnorm-scal   ratio     time
               ---- ---- ----------- ----------- --------- -------
 rohf_wrap: in g_x =    1              0.00001873
 rohf_wrap: out g_x =    1              0.00000276
                  1    1  3.6600E-06  1.9536E-01    0.0000     0.2
 rohf_wrap: in g_x =    1              0.00000366
 rohf_wrap: out g_x =    1              0.00000058
                  2    2  1.1165E-06  5.9596E-02    0.3051     0.2
 rohf_wrap: in g_x =    1              0.00000112
 rohf_wrap: out g_x =    1              0.00000015
                  3    3  2.3313E-07  1.2444E-02    0.2088     0.2
 rohf_wrap: in g_x =    1              0.00000023
 rohf_wrap: out g_x =    1              0.00000003
                  4    4  5.2183E-08  2.7854E-03    0.2238     0.2
 rohf_wrap: in g_x =    1              0.00000005
 rohf_wrap: out g_x =    1              0.00000000
                  5    5  3.3866E-09  1.8077E-04    0.0649     0.2
 rohf_wrap: in g_x =    1              0.00000000
 rohf_wrap: out g_x =    1              0.00000000
                  6    6  4.0646E-10  2.1696E-05    0.1200     0.2
 rohf_wrap: in g_x =    1              0.00000000
 rohf_wrap: out g_x =    1              0.00000000
                  7    7  1.8053E-11  9.6361E-07    0.0444     0.2

                              ----- Line search ------

        step       energy         lsg     num-lsg   num-lsh   lsrat    time
      ------- ---------------- --------- --------- --------- ------- --------
       0.0000    -100.01067851 -5.92D-11  0.00D+00  0.00D+00 0.0D+00      0.2

 Wrote rohf: cfock to ./tce_hf_0.82512.cfock

       1.0000    -100.01067851 -3.80D-18 -4.44D-14  5.92D-11 6.4D-08      0.2

              iter       energy          gnorm     gmax       time
             ----- ------------------- --------- --------- --------
                 5     -100.0106785094  3.86D-11  1.71D-11      0.2

 Wrote molecular orbitals to ./tce_hf_0.82512.movecs



       Final RHF  results 
       ------------------ 

         Total SCF energy =   -100.010678509382
      One-electron energy =   -151.647305476449
      Two-electron energy =     45.864623814802
 Nuclear repulsion energy =      5.772003152265

        Time for solution =      0.1s


             Final eigenvalues
             -----------------

              1      
    1  -26.2759
    2   -1.6209
    3   -0.7846
    4   -0.6388
    5   -0.6388
    6    0.2013
    7    0.9133
    8    1.3883
    9    1.4352
   10    1.4352
   11    1.6041
   12    1.6041
   13    2.1257
   14    2.7884
   15    3.9945
   16    3.9945
   17    4.3781
   18    4.3781
   19    5.1865

                       ROHF Final Molecular Orbital Analysis
                       -------------------------------------

 Vector    1  Occ=2.000000D+00  E=-2.627591D+01
              MO Center= -3.0D-19, -9.3D-20, -8.2D-02, r^2= 1.2D-02
   Bfn.  Coefficient  Atom+Function         Bfn.  Coefficient  Atom+Function  
  ----- ------------  ---------------      ----- ------------  ---------------
     6      1.000729  2 F  s          

 Vector    2  Occ=2.000000D+00  E=-1.620898D+00
              MO Center= -1.9D-17, -2.8D-17,  6.0D-02, r^2= 3.6D-01
   Bfn.  Coefficient  Atom+Function         Bfn.  Coefficient  Atom+Function  
  ----- ------------  ---------------      ----- ------------  ---------------
     7      0.474770  2 F  s                  8      0.431786  2 F  s          
     1      0.229082  1 H  s          

 Vector    3  Occ=2.000000D+00  E=-7.845928D-01
              MO Center= -4.7D-17, -2.2D-17, -3.6D-02, r^2= 5.1D-01
   Bfn.  Coefficient  Atom+Function         Bfn.  Coefficient  Atom+Function  
  ----- ------------  ---------------      ----- ------------  ---------------
    11      0.564097  2 F  pz                 1      0.410996  1 H  s          
     8     -0.346615  2 F  s                 14      0.274710  2 F  pz         

 Vector    4  Occ=2.000000D+00  E=-6.388164D-01
              MO Center=  3.2D-17,  6.3D-17, -6.3D-02, r^2= 4.4D-01
   Bfn.  Coefficient  Atom+Function         Bfn.  Coefficient  Atom+Function  
  ----- ------------  ---------------      ----- ------------  ---------------
     9      0.660720  2 F  px                12      0.468236  2 F  px         

 Vector    5  Occ=2.000000D+00  E=-6.388164D-01
              MO Center=  7.6D-17,  1.0D-17, -6.3D-02, r^2= 4.4D-01
   Bfn.  Coefficient  Atom+Function         Bfn.  Coefficient  Atom+Function  
  ----- ------------  ---------------      ----- ------------  ---------------
    10      0.660720  2 F  py                13      0.468236  2 F  py         

 Vector    6  Occ=0.000000D+00  E= 2.012679D-01
              MO Center=  1.7D-17,  1.0D-18,  9.6D-01, r^2= 2.2D+00
   Bfn.  Coefficient  Atom+Function         Bfn.  Coefficient  Atom+Function  
  ----- ------------  ---------------      ----- ------------  ---------------
     2      1.337693  1 H  s                  8     -0.735623  2 F  s          
    14     -0.295617  2 F  pz                11     -0.181353  2 F  pz         

 Vector    7  Occ=0.000000D+00  E= 9.133198D-01
              MO Center= -1.2D-16,  2.5D-17,  7.4D-01, r^2= 9.2D-01
   Bfn.  Coefficient  Atom+Function         Bfn.  Coefficient  Atom+Function  
  ----- ------------  ---------------      ----- ------------  ---------------
     1      1.209675  1 H  s                  2     -0.813769  1 H  s          
     5      0.442883  1 H  pz                11     -0.384020  2 F  pz         
    14     -0.197078  2 F  pz         

 Vector    8  Occ=0.000000D+00  E= 1.388344D+00
              MO Center=  3.7D-16, -3.7D-17, -4.8D-01, r^2= 9.2D-01
   Bfn.  Coefficient  Atom+Function         Bfn.  Coefficient  Atom+Function  
  ----- ------------  ---------------      ----- ------------  ---------------
    14      1.698649  2 F  pz                 1     -1.284231  1 H  s          
     8      0.808674  2 F  s                 11     -0.607097  2 F  pz         
     5      0.442377  1 H  pz                 7      0.193984  2 F  s          

 Vector    9  Occ=0.000000D+00  E= 1.435179D+00
              MO Center= -8.5D-16, -1.3D-16, -1.8D-03, r^2= 8.7D-01
   Bfn.  Coefficient  Atom+Function         Bfn.  Coefficient  Atom+Function  
  ----- ------------  ---------------      ----- ------------  ---------------
    12     -0.940364  2 F  px                 9      0.919704  2 F  px         
     3     -0.153675  1 H  px         

 Vector   10  Occ=0.000000D+00  E= 1.435179D+00
              MO Center= -5.6D-17,  3.7D-16, -1.8D-03, r^2= 8.7D-01
   Bfn.  Coefficient  Atom+Function         Bfn.  Coefficient  Atom+Function  
  ----- ------------  ---------------      ----- ------------  ---------------
    13     -0.940364  2 F  py                10      0.919704  2 F  py         
     4     -0.153675  1 H  py         

 Vector   11  Occ=0.000000D+00  E= 1.604094D+00
              MO Center=  3.4D-17,  5.4D-17,  5.3D-01, r^2= 8.2D-01
   Bfn.  Coefficient  Atom+Function         Bfn.  Coefficient  Atom+Function  
  ----- ------------  ---------------      ----- ------------  ---------------
     4      0.945928  1 H  py                13     -0.591606  2 F  py         
     3      0.553807  1 H  px                12     -0.346364  2 F  px         

 Vector   12  Occ=0.000000D+00  E= 1.604094D+00
              MO Center=  3.2D-17, -1.4D-17,  5.3D-01, r^2= 8.2D-01
   Bfn.  Coefficient  Atom+Function         Bfn.  Coefficient  Atom+Function  
  ----- ------------  ---------------      ----- ------------  ---------------
     3      0.945928  1 H  px                12     -0.591606  2 F  px         
     4     -0.553807  1 H  py                13      0.346364  2 F  py         

 Vector   13  Occ=0.000000D+00  E= 2.125742D+00
              MO Center=  7.4D-16, -2.2D-16,  9.1D-02, r^2= 9.9D-01
   Bfn.  Coefficient  Atom+Function         Bfn.  Coefficient  Atom+Function  
  ----- ------------  ---------------      ----- ------------  ---------------
     8      2.608556  2 F  s                  7     -1.618772  2 F  s          
     1     -0.890005  1 H  s                 14      0.719083  2 F  pz         
     6     -0.697250  2 F  s                  2     -0.598778  1 H  s          
     5      0.415286  1 H  pz         

 Vector   14  Occ=0.000000D+00  E= 2.788419D+00
              MO Center=  7.4D-17, -1.8D-17,  6.2D-01, r^2= 5.3D-01
   Bfn.  Coefficient  Atom+Function         Bfn.  Coefficient  Atom+Function  
  ----- ------------  ---------------      ----- ------------  ---------------
     5      1.503001  1 H  pz                 1     -1.096441  1 H  s          
     8      0.977010  2 F  s                 11      0.839309  2 F  pz         
     7      0.562490  2 F  s                 14      0.326679  2 F  pz         
     6      0.225192  2 F  s                  2     -0.215728  1 H  s          

 Vector   15  Occ=0.000000D+00  E= 3.994459D+00
              MO Center= -6.5D-18, -1.5D-17, -8.3D-02, r^2= 3.0D-01
   Bfn.  Coefficient  Atom+Function         Bfn.  Coefficient  Atom+Function  
  ----- ------------  ---------------      ----- ------------  ---------------
    19      0.989464  2 F  d  2       

 Vector   16  Occ=0.000000D+00  E= 3.994459D+00
              MO Center= -8.5D-17, -6.6D-17, -8.3D-02, r^2= 3.0D-01
   Bfn.  Coefficient  Atom+Function         Bfn.  Coefficient  Atom+Function  
  ----- ------------  ---------------      ----- ------------  ---------------
    15      0.989464  2 F  d -2       

 Vector   17  Occ=0.000000D+00  E= 4.378120D+00
              MO Center=  2.4D-18,  4.5D-17, -1.7D-02, r^2= 4.1D-01
   Bfn.  Coefficient  Atom+Function         Bfn.  Coefficient  Atom+Function  
  ----- ------------  ---------------      ----- ------------  ---------------
    16      1.050613  2 F  d -1               4     -0.479268  1 H  py         
    13      0.230858  2 F  py         

 Vector   18  Occ=0.000000D+00  E= 4.378120D+00
              MO Center=  9.1D-18, -1.7D-17, -1.7D-02, r^2= 4.1D-01
   Bfn.  Coefficient  Atom+Function         Bfn.  Coefficient  Atom+Function  
  ----- ------------  ---------------      ----- ------------  ---------------
    18      1.050613  2 F  d  1               3      0.479268  1 H  px         
    12     -0.230858  2 F  px         

 Vector   19  Occ=0.000000D+00  E= 5.186457D+00
              MO Center=  4.3D-17, -1.1D-17, -4.8D-02, r^2= 5.2D-01
   Bfn.  Coefficient  Atom+Function         Bfn.  Coefficient  Atom+Function  
  ----- ------------  ---------------      ----- ------------  ---------------
     1      1.932283  1 H  s                  8     -1.799871  2 F  s          
    17     -1.193459  2 F  d  0              14     -1.136564  2 F  pz         
     5     -1.046237  1 H  pz                11     -0.347614  2 F  pz         
     7      0.160179  2 F  s          


 center of mass
 --------------
 x =   0.00000000 y =   0.00000000 z =  -0.07737693

 moments of inertia (a.u.)
 ------------------
           2.326852774676           0.000000000000           0.000000000000
           0.000000000000           2.326852774676           0.000000000000
           0.000000000000           0.000000000000           0.000000000000

  Mulliken analysis of the total density
  --------------------------------------

   Bfn.    Population  Atom+Function
   ---------------------------------
     1      0.714761    1 H  s          
     2      0.006179    1 H  s          
     3      0.032841    1 H  px         
     4      0.032841    1 H  py         
     5      0.062223    1 H  pz         
     6      2.001430    2 F  s          
     7      0.890016    2 F  s          
     8      0.913314    2 F  s          
     9      1.199964    2 F  px         
    10      1.199964    2 F  py         
    11      0.964366    2 F  pz         
    12      0.766507    2 F  px         
    13      0.766507    2 F  py         
    14      0.442818    2 F  pz         
    15      0.000000    2 F  d -2       
    16      0.000687    2 F  d -1       
    17      0.004894    2 F  d  0       
    18      0.000687    2 F  d  1       
    19      0.000000    2 F  d  2       

    Atom       Charge   Shell Charges
 -----------   ------   -------------------------------------------------------
    1 H    1     0.85   0.71  0.01  0.13
    2 F    9     9.15   2.00  0.89  0.91  3.36  1.98  0.01

       Multipole analysis of the density wrt the origin
       ------------------------------------------------

     L   x y z        total         open         nuclear
     -   - - -        -----         ----         -------
     0   0 0 0     -0.000000      0.000000     10.000000

     1   1 0 0     -0.000000      0.000000      0.000000
     1   0 1 0     -0.000000      0.000000      0.000000
     1   0 0 1      0.694911      0.000000      0.000000

     2   2 0 0     -3.942224      0.000000      0.000000
     2   1 1 0      0.000000      0.000000      0.000000
     2   1 0 1      0.000000      0.000000      0.000000
     2   0 2 0     -3.942224      0.000000      0.000000
     2   0 1 1      0.000000      0.000000      0.000000
     2   0 0 2     -2.685708      0.000000      2.188136


 Wrote molecular orbitals to ./tce_hf_0.82512.movecs


 Parallel integral file used       1 records with       0 large values


 Read molecular orbitals from ./tce_hf_0.82512.movecs


 Schwarz integral screening summary 
 ---------------------------------- 

        No. of atom pairs =       3
       No. of shell pairs =      45

 Atomic screening 

   value      no.     value      no.     value      no.     value      no.   
  -------- ------    -------- ------    -------- ------    -------- ------   
  0.00D+00      0    1.00D-13      0    1.00D-12      0    1.00D-11      0
  1.00D-10      0    1.00D-09      0    1.00D-08      0    1.00D-07      0
  1.00D-06      0    1.00D-05      0    1.00D-04      0    1.00D-03      0
  1.00D-02      0    1.00D-01      0    1.00D+00      3    1.00D+01      0


 Shell screening 

   value      no.     value      no.     value      no.     value      no.   
  -------- ------    -------- ------    -------- ------    -------- ------   
  0.00D+00      0    1.00D-13      0    1.00D-12      0    1.00D-11      0
  1.00D-10      0    1.00D-09      0    1.00D-08      0    1.00D-07      0
  1.00D-06      0    1.00D-05      0    1.00D-04      0    1.00D-03      0
  1.00D-02      0    1.00D-01      9    1.00D+00     36    1.00D+01      0


                   NWChem Extensible Many-Electron Theory Module
                   ---------------------------------------------

              ======================================================
                   This portion of the program was automatically
                  generated by a Tensor Contraction Engine (TCE).
                  The development of this portion of the program
                 and TCE was supported by US Department of Energy,
                Office of Science, Office of Basic Energy Science.
                      TCE is a product of Battelle and PNNL.
              Please cite: S.Hirata, J.Phys.Chem.A 107, 9887 (2003).
              ======================================================

            General Information
            -------------------
      Number of processors :     1
         Wavefunction type : Restricted Hartree-Fock
          No. of electrons :    10
           Alpha electrons :     5
            Beta electrons :     5
           No. of orbitals :    38
            Alpha orbitals :    19
             Beta orbitals :    19
        Alpha frozen cores :     0
         Beta frozen cores :     0
     Alpha frozen virtuals :     0
      Beta frozen virtuals :     0
         Spin multiplicity : singlet 
    Number of AO functions :    19
       Number of AO shells :     9
        Use of symmetry is : off
      Symmetry adaption is : off
         Schwarz screening : 0.10D-09

          Correlation Information
          -----------------------
          Calculation type : Coupled-cluster singles & doubles                           
   Perturbative correction : none                                                        
            Max iterations :      100
        Residual threshold : 0.10D-07
     T(0) DIIS level shift : 0.00D+00
     L(0) DIIS level shift : 0.00D+00
     T(1) DIIS level shift : 0.00D+00
     L(1) DIIS level shift : 0.00D+00
     T(R) DIIS level shift : 0.00D+00
     T(I) DIIS level shift : 0.00D+00
   CC-T/L Amplitude update :  5-th order DIIS
                I/O scheme : Global Array Library
        L-threshold :  0.10D-07
        EOM-threshold :  0.10D-07
 no EOMCCSD initial starts read in
 TCE RESTART OPTIONS
 READ_INT:   F
 WRITE_INT:  F
 READ_TA:    F
 WRITE_TA:   F
 READ_XA:    F
 WRITE_XA:   F
 READ_IN3:   F
 WRITE_IN3:  F
 SLICE:      F
 D4D5:       F
 quantumc:   F
 qrotation:  F
 qducc:      T
 nacto:                         0
 nrotv:                         0
 nrot:                          0

            Memory Information
            ------------------
          Available GA space size is     402652823 doubles
          Available MA space size is     402651564 doubles

 Maximum block size        32 doubles

 tile_dim =     14

 Block   Spin    Irrep     Size     Offset   Alpha
 -------------------------------------------------
   1    alpha     a      5 doubles       0       1
   2    beta      a      5 doubles       5       1
   3    alpha     a     14 doubles      10       3
   4    beta      a     14 doubles      24       3

 Global array virtual files algorithm will be used

 Parallel file system coherency ......... OK

 Setting fock-build task_bf   :      -1
                    maxquartet:   10000
                    maxeri    :  129600
                    maxscr    :       0
                    intacc    : 0.0D+00
                    denscreen : T
                    dentol    : 1.0D-06

   0: nuse=   1(   1.0) avail=   434881Mb (out of   434881Mb) on .

 #quartets = 1.035D+03 #integrals = 4.841D+03 #direct =  0.0% #cached =100.0%


 Integral file          = ./tce_hf_0.82512.aoints.0
 Record size in doubles =  65536        No. of integs per rec  =  43688
 Max. records in memory =      2        Max. records in file   = 826273
 No. of bits per label  =      8        No. of bits per value  =     64


 Fock matrix recomputed
 1-e file size   =              361
 1-e file name   = ./tce_hf_0.82512.f1
 Cpu & wall time / sec            0.0            0.0
 4-electron integrals stored in orbital form

 v2    file size   =            64311
 4-index algorithm nr.  13 is used
 imaxsize =       30
 imaxsize ichop =        0
 Cpu & wall time / sec            0.1            0.1
 T1-number-of-tasks                    1

 t1 file size   =               70
 t1 file name   = ./tce_hf_0.82512.t1
 t1 file handle =       -998
 T2-number-of-boxes                    2

 t2 file size   =             9800
 t2 file name   = ./tce_hf_0.82512.t2
 t2 file handle =       -996

 CCSD iterations
 -----------------------------------------------------------------
 Iter          Residuum       Correlation     Cpu    Wall    V2*C2
 -----------------------------------------------------------------
    1   0.0984761144839  -0.1997632499807     0.0     0.0     0.0
    2   0.0242896991587  -0.2025376816342     0.0     0.0     0.0
    3   0.0078583703342  -0.2043522947612     0.0     0.0     0.0
    4   0.0028192993678  -0.2047380880859     0.0     0.0     0.0
    5   0.0010445221792  -0.2048737460192     0.0     0.0     0.0
 MICROCYCLE DIIS UPDATE:                    5                    5
    6   0.0000953322710  -0.2049368550566     0.0     0.0     0.0
    7   0.0000281779797  -0.2049434380406     0.0     0.0     0.0
    8   0.0000092906090  -0.2049435948359     0.0     0.0     0.0
    9   0.0000039162087  -0.2049436142747     0.0     0.0     0.0
   10   0.0000015858916  -0.2049436551984     0.0     0.0     0.0
 MICROCYCLE DIIS UPDATE:                   10                    5
   11   0.0000002628378  -0.2049436897899     0.0     0.0     0.0
   12   0.0000001111896  -0.2049436820291     0.0     0.0     0.0
   13   0.0000000425713  -0.2049436841172     0.0     0.0     0.0
   14   0.0000000222030  -0.2049436838963     0.0     0.0     0.0
   15   0.0000000103324  -0.2049436839343     0.0     0.0     0.0
 MICROCYCLE DIIS UPDATE:                   15                    5
   16   0.0000000008449  -0.2049436838498     0.0     0.0     0.0
 -----------------------------------------------------------------
 Iterations converged
 CCSD correlation energy / hartree =        -0.204943683849819
 CCSD total energy / hartree       =      -100.215622193231965

 Singles contributions

 Doubles contributions
 Ground state specification:
 exp(T)|Ref>~(1+T)|Ref>
 ------- a(p)+/a(q) strings ----------

 singles norm

 doubles norm

 Reference string
   1.0000000000000000      :(1a)+ (2a)+ (3a)+ (4a)+ (5a)+ (1b)+ (2b)+ (3b)+ (4b)+ (5b)+ |0>

 Singles strings

 Doubles strings
 -------------------------------------
 enrep_tce =    5.7720031522654685     
  EHF(total)         =      -100.01067851
  Shift (HFtot-HFA)  =         0.00000000
 ALL OCCUPIED ORBITALS ARE ACTIVE IN DUCC --> NO SHIFT
 Number of active orbitals                   10
 Number of active alpha electrons                    5
 Number of active beta electrons                    5
  nos                    10
  nvs                    28
 noas                     5
 nobs                     5
 nvas                    14
 nvbs                    14
 nactv                     5
 From DUCC CCSD corr. ene. -0.20494368384991599     
 From DUCC CCSD corr. ene.-e-part  0.12830914083979791     
 begin_one_electron_integrals
    1    1       -41.0576810350
    1    2         0.7317030455
    1    3        -0.1967263477
    1    6        -0.1690119106
    1    7        -0.1196753913
    1    8         0.1705696379
    2    1         0.7317030455
    2    2        -9.4297629664
    2    3         0.2293319259
    2    6         0.9630499282
    2    7         0.6655214434
    2    8        -0.2594193253
    3    1        -0.1967263477
    3    2         0.2293319259
    3    3        -8.2912971530
    3    6         0.6925612989
    3    7         1.2379602616
    3    8         1.7596046942
    4    4        -8.5279341196
    4    9        -2.4736434495
    4   10         0.1284446282
    5    5        -8.5279341196
    5    9        -0.1284446282
    5   10        -2.4736434495
    6    1        -0.1690119106
    6    2         0.9630499282
    6    3         0.6925612989
    6    6        -3.4682009054
    6    7        -1.0942212374
    6    8        -0.3601809961
    7    1        -0.1196753913
    7    2         0.6655214434
    7    3         1.2379602616
    7    6        -1.0942212374
    7    7        -4.7654098528
    7    8        -0.5164962499
    8    1         0.1705696379
    8    2        -0.2594193253
    8    3         1.7596046942
    8    6        -0.3601809961
    8    7        -0.5164962499
    8    8        -4.8289821340
    9    4        -2.4736434495
    9    5        -0.1284446282
    9    9        -6.0135801816
   10    4         0.1284446282
   10    5        -2.4736434495
   10   10        -6.0135801816
 end_one_electron_integrals
 begin_two_electron_integrals
    1    1    1    1        5.3553653141
    2    1    1    1       -0.5164631140
    2    2    1    1        1.2402145973
    2    1    2    1        0.0800724944
    2    2    2    1       -0.0193970520
    2    2    2    2        0.8866411842
    3    1    1    1        0.1388641826
    3    2    1    1       -0.0820161889
    3    3    1    1        1.1304643585
    3    1    2    1       -0.0173426353
    3    1    2    2        0.0173455014
    3    2    2    1        0.0091313707
    3    2    2    2        0.0314496182
    3    3    2    1       -0.0148422061
    3    3    2    2        0.8074485849
    3    1    3    1        0.0336100697
    3    2    3    1        0.0299145699
    3    2    3    2        0.1633862626
    3    3    3    1       -0.0068110266
    3    3    3    2       -0.0402986746
    3    3    3    3        0.8270534228
    4    4    1    1        1.2207781515
    4    4    2    1       -0.0152992279
    4    4    2    2        0.8421439379
    4    4    3    1        0.0049645877
    4    4    3    2       -0.0345022954
    4    4    3    3        0.7671014947
    4    1    4    1        0.0376721379
    4    2    4    1        0.0382107657
    4    2    4    2        0.1549501767
    4    3    4    1       -0.0101223298
    4    3    4    2       -0.0315120871
    4    3    4    3        0.0434393413
    4    4    4    4        0.8850646639
    5    5    1    1        1.2207781515
    5    5    2    1       -0.0152992279
    5    5    2    2        0.8421439379
    5    5    3    1        0.0049645877
    5    5    3    2       -0.0345022954
    5    5    3    3        0.7671014947
    5    5    4    4        0.8018025817
    5    1    5    1        0.0376721379
    5    2    5    1        0.0382107657
    5    2    5    2        0.1549501767
    5    3    5    1       -0.0101223298
    5    3    5    2       -0.0315120871
    5    3    5    3        0.0434393413
    5    4    5    4        0.0398424900
    5    5    5    5        0.8850646639
    6    1    1    1        0.1296593438
    6    2    1    1       -0.1932784682
    6    3    1    1       -0.1285374561
    6    6    1    1        0.4086225642
    6    1    2    1       -0.0221899373
    6    1    2    2        0.0016090840
    6    2    2    1        0.0044610632
    6    2    2    2       -0.1065311183
    6    3    2    1        0.0013259831
    6    3    2    2       -0.0708489443
    6    6    2    1       -0.0014637704
    6    6    2    2        0.3823941076
    6    1    3    1       -0.0033102787
    6    1    3    2       -0.0106136523
    6    1    3    3        0.0060462392
    6    2    3    1       -0.0100866973
    6    2    3    2       -0.0208227913
    6    2    3    3       -0.0722087780
    6    3    3    1       -0.0034883144
    6    3    3    2        0.0084742969
    6    3    3    3       -0.0630478397
    6    6    3    1        0.0065831462
    6    6    3    2        0.0447001105
    6    6    3    3        0.3658585916
    6    1    4    4        0.0027050423
    6    2    4    4       -0.0927353819
    6    3    4    4       -0.0645789980
    6    4    4    1       -0.0070593852
    6    4    4    2       -0.0175057817
    6    4    4    3       -0.0028007944
    6    6    4    4        0.3594163294
    6    1    5    5        0.0027050423
    6    2    5    5       -0.0927353819
    6    3    5    5       -0.0645789980
    6    5    5    1       -0.0070593852
    6    5    5    2       -0.0175057817
    6    5    5    3       -0.0028007944
    6    6    5    5        0.3594163294
    6    1    6    1        0.0082599959
    6    2    6    1        0.0012390267
    6    2    6    2        0.0320078860
    6    3    6    1        0.0006253872
    6    3    6    2        0.0203613483
    6    3    6    3        0.0244687810
    6    4    6    4        0.0115097698
    6    5    6    5        0.0115097698
    6    6    6    1       -0.0011590777
    6    6    6    2       -0.0099668678
    6    6    6    3        0.0111689691
    6    6    6    6        0.3508077221
    7    1    1    1        0.0937947467
    7    2    1    1       -0.1492391023
    7    3    1    1       -0.2693233740
    7    6    1    1        0.1712664508
    7    7    1    1        0.6813154304
    7    1    2    1       -0.0180525282
    7    1    2    2       -0.0037423352
    7    2    2    1        0.0026918074
    7    2    2    2       -0.0686417049
    7    3    2    1        0.0070131118
    7    3    2    2       -0.0945968854
    7    6    2    1       -0.0024272506
    7    6    2    2        0.1187269002
    7    7    2    1       -0.0040009733
    7    7    2    2        0.6062983305
    7    1    3    1       -0.0149517785
    7    1    3    2       -0.0205756356
    7    1    3    3        0.0098645064
    7    2    3    1       -0.0150741698
    7    2    3    2       -0.0175632771
    7    2    3    3       -0.0100329379
    7    3    3    1        0.0048133465
    7    3    3    2        0.0789049100
    7    3    3    3       -0.1010112768
    7    6    3    1        0.0059937507
    7    6    3    2        0.0285398680
    7    6    3    3        0.1103715690
    7    7    3    1        0.0106582422
    7    7    3    2        0.1051868931
    7    7    3    3        0.5997595866
    7    1    4    4        0.0011239392
    7    2    4    4       -0.0708792303
    7    3    4    4       -0.1126015634
    7    4    4    1       -0.0082663519
    7    4    4    2       -0.0348165613
    7    4    4    3       -0.0068317457
    7    6    4    4        0.0980148292
    7    7    4    4        0.5345652098
    7    1    5    5        0.0011239392
    7    2    5    5       -0.0708792303
    7    3    5    5       -0.1126015634
    7    5    5    1       -0.0082663519
    7    5    5    2       -0.0348165613
    7    5    5    3       -0.0068317457
    7    6    5    5        0.0980148292
    7    7    5    5        0.5345652098
    7    1    6    1        0.0099217688
    7    1    6    2        0.0046209506
    7    1    6    3        0.0015969808
    7    1    6    6       -0.0031851700
    7    2    6    1        0.0032567091
    7    2    6    2        0.0324921711
    7    2    6    3        0.0216014537
    7    2    6    6        0.0020618739
    7    3    6    1       -0.0030994066
    7    3    6    2        0.0279216483
    7    3    6    3        0.0413711362
    7    3    6    6        0.0242671677
    7    4    6    4        0.0092411681
    7    5    6    5        0.0092411681
    7    6    6    1       -0.0007661979
    7    6    6    2       -0.0159106837
    7    6    6    3       -0.0036833111
    7    6    6    6        0.0430257641
    7    7    6    1       -0.0013828901
    7    7    6    2       -0.0313997226
    7    7    6    3        0.0075615911
    7    7    6    6        0.4119741876
    7    1    7    1        0.0155652574
    7    2    7    1        0.0086251161
    7    2    7    2        0.0609596556
    7    3    7    1       -0.0051283609
    7    3    7    2        0.0445019984
    7    3    7    3        0.1243572815
    7    4    7    4        0.0202832133
    7    5    7    5        0.0202832133
    7    6    7    1       -0.0025537292
    7    6    7    2        0.0016639233
    7    6    7    3        0.0119103556
    7    6    7    6        0.0449923784
    7    7    7    1       -0.0042847506
    7    7    7    2        0.0428139312
    7    7    7    3        0.0873613266
    7    7    7    6        0.1330485150
    7    7    7    7        0.7307907065
    8    1    1    1       -0.1273835184
    8    2    1    1        0.0720671364
    8    3    1    1       -0.3795243743
    8    6    1    1        0.0684577785
    8    7    1    1        0.1446268255
    8    8    1    1        0.8090154621
    8    1    2    1        0.0162994400
    8    1    2    2       -0.0144729566
    8    2    2    1       -0.0061543091
    8    2    2    2        0.0090767007
    8    3    2    1        0.0114954231
    8    3    2    2       -0.1716895787
    8    6    2    1       -0.0007808883
    8    6    2    2        0.0426039956
    8    7    2    1       -0.0056478712
    8    7    2    2        0.0319195023
    8    8    2    1       -0.0114908203
    8    8    2    2        0.5995434629
    8    1    3    1       -0.0312592435
    8    1    3    2       -0.0244066805
    8    1    3    3        0.0054494430
    8    2    3    1       -0.0129983838
    8    2    3    2       -0.0447870714
    8    2    3    3        0.0132906752
    8    3    3    1       -0.0006370690
    8    3    3    2       -0.0169938558
    8    3    3    3       -0.1557539494
    8    6    3    1        0.0055205552
    8    6    3    2        0.0343003009
    8    6    3    3        0.0265671775
    8    7    3    1        0.0002814188
    8    7    3    2       -0.0135996880
    8    7    3    3        0.0318231527
    8    8    3    1       -0.0048608141
    8    8    3    2       -0.0554517762
    8    8    3    3        0.6269953574
    8    1    4    4       -0.0034570355
    8    2    4    4        0.0353364053
    8    3    4    4       -0.1488086143
    8    4    4    1        0.0091308095
    8    4    4    2        0.0305007907
    8    4    4    3       -0.0127122713
    8    6    4    4        0.0273483857
    8    7    4    4        0.0345419888
    8    8    4    4        0.5895374601
    8    1    5    5       -0.0034570355
    8    2    5    5        0.0353364053
    8    3    5    5       -0.1488086143
    8    5    5    1        0.0091308095
    8    5    5    2        0.0305007907
    8    5    5    3       -0.0127122713
    8    6    5    5        0.0273483857
    8    7    5    5        0.0345419888
    8    8    5    5        0.5895374601
    8    1    6    1        0.0027744564
    8    1    6    2        0.0083396541
    8    1    6    3        0.0030541136
    8    1    6    6       -0.0052417934
    8    2    6    1        0.0054413373
    8    2    6    2        0.0059524932
    8    2    6    3        0.0081399098
    8    2    6    6        0.0020720895
    8    3    6    1       -0.0033505064
    8    3    6    2        0.0376907097
    8    3    6    3        0.0185853097
    8    3    6    6       -0.0324824496
    8    4    6    4       -0.0019874554
    8    5    6    5       -0.0019874554
    8    6    6    1       -0.0011202368
    8    6    6    2       -0.0087362065
    8    6    6    3        0.0030858436
    8    6    6    6        0.0284198603
    8    7    6    1        0.0016130908
    8    7    6    2       -0.0102334795
    8    7    6    3       -0.0071016987
    8    7    6    6        0.0067243954
    8    8    6    1        0.0045366472
    8    8    6    2       -0.0401042291
    8    8    6    3       -0.0524698701
    8    8    6    6        0.3065561072
    8    1    7    1        0.0133401753
    8    1    7    2        0.0125737221
    8    1    7    3       -0.0032842794
    8    1    7    6       -0.0048911260
    8    1    7    7       -0.0084716656
    8    2    7    1        0.0097867639
    8    2    7    2        0.0039397263
    8    2    7    3       -0.0161682128
    8    2    7    6       -0.0051910386
    8    2    7    7       -0.0122206473
    8    3    7    1       -0.0041257666
    8    3    7    2        0.0141706390
    8    3    7    3        0.0322987073
    8    3    7    6       -0.0318163084
    8    3    7    7       -0.1050409391
    8    4    7    4       -0.0027519049
    8    5    7    5       -0.0027519049
    8    6    7    1       -0.0027393154
    8    6    7    2       -0.0057504695
    8    6    7    3        0.0087372408
    8    6    7    6        0.0130852275
    8    6    7    7        0.0499245147
    8    7    7    1        0.0018753241
    8    7    7    2       -0.0149767397
    8    7    7    3       -0.0320512994
    8    7    7    6        0.0068273123
    8    7    7    7       -0.0045056211
    8    8    7    1        0.0068021874
    8    8    7    2       -0.0105467009
    8    8    7    3       -0.0801198821
    8    8    7    6        0.0651274492
    8    8    7    7        0.4370167586
    8    1    8    1        0.0282159704
    8    2    8    1        0.0110798612
    8    2    8    2        0.0382090643
    8    3    8    1        0.0003431212
    8    3    8    2       -0.0145401426
    8    3    8    3        0.1032482790
    8    4    8    4        0.0192304617
    8    5    8    5        0.0192304617
    8    6    8    1       -0.0044038066
    8    6    8    2        0.0017094260
    8    6    8    3       -0.0269435711
    8    6    8    6        0.0192943584
    8    7    8    1       -0.0003708008
    8    7    8    2        0.0109914163
    8    7    8    3       -0.0250214492
    8    7    8    6        0.0067139389
    8    7    8    7        0.0241824456
    8    8    8    1        0.0034341231
    8    8    8    2       -0.0080161436
    8    8    8    3       -0.0517209295
    8    8    8    6       -0.0103589285
    8    8    8    7        0.0079011711
    8    8    8    8        0.5805000645
    9    4    1    1        0.5610193096
    9    5    1    1        0.0291310846
    9    9    1    1        1.0923699066
    9    4    2    1       -0.0171406437
    9    4    2    2        0.2183277316
    9    5    2    1       -0.0008900327
    9    5    2    2        0.0113367285
    9    9    2    1       -0.0207116851
    9    9    2    2        0.7094442423
    9    4    3    1        0.0034845548
    9    4    3    2       -0.0299708829
    9    4    3    3        0.1882579592
    9    5    3    1        0.0001809365
    9    5    3    2       -0.0015562465
    9    5    3    3        0.0097753472
    9    9    3    1        0.0055734924
    9    9    3    2       -0.0192622031
    9    9    3    3        0.6604495906
    9    1    4    1        0.0450356064
    9    1    4    2        0.0412967856
    9    1    4    3       -0.0112200110
    9    2    4    1        0.0228740088
    9    2    4    2        0.0448277804
    9    2    4    3       -0.0150628374
    9    3    4    1       -0.0077893875
    9    3    4    2       -0.0209602634
    9    3    4    3        0.0137257518
    9    4    4    4        0.2362252057
    9    5    4    4        0.0108380691
    9    6    4    1       -0.0084561589
    9    6    4    2       -0.0416838856
    9    6    4    3        0.0023633499
    9    7    4    1       -0.0050416046
    9    7    4    2       -0.0129597870
    9    7    4    3       -0.0105708969
    9    8    4    1        0.0075907693
    9    8    4    2        0.0162245690
    9    8    4    3       -0.0267519252
    9    9    4    4        0.7419569165
    9    1    5    1        0.0023384865
    9    1    5    2        0.0021443471
    9    1    5    3       -0.0005826022
    9    2    5    1        0.0011877393
    9    2    5    2        0.0023276950
    9    2    5    3       -0.0007821420
    9    3    5    1       -0.0004044661
    9    3    5    2       -0.0010883675
    9    3    5    3        0.0007127135
    9    4    5    4        0.0007329748
    9    4    5    5        0.2087243283
    9    5    5    4        0.0133849253
    9    5    5    5        0.0122660599
    9    6    5    1       -0.0004390884
    9    6    5    2       -0.0021644474
    9    6    5    3        0.0001227176
    9    7    5    1       -0.0002617867
    9    7    5    2       -0.0006729406
    9    7    5    3       -0.0005488968
    9    8    5    1        0.0003941528
    9    8    5    2        0.0008424653
    9    8    5    3       -0.0013891012
    9    9    5    4        0.0031412342
    9    9    5    5        0.6816247482
    9    1    6    4       -0.0076251667
    9    1    6    5       -0.0003959389
    9    2    6    4       -0.0172345602
    9    2    6    5       -0.0008949094
    9    3    6    4       -0.0009751146
    9    3    6    5       -0.0000506331
    9    4    6    1        0.0038567344
    9    4    6    2       -0.0521115425
    9    4    6    3       -0.0310882011
    9    4    6    6        0.0221896361
    9    5    6    1        0.0002002620
    9    5    6    2       -0.0027059064
    9    5    6    3       -0.0016142635
    9    5    6    6        0.0011522031
    9    6    6    4       -0.0016825104
    9    6    6    5       -0.0000873648
    9    7    6    4        0.0063758835
    9    7    6    5        0.0003310695
    9    8    6    4       -0.0005030560
    9    8    6    5       -0.0000261213
    9    9    6    1        0.0045999075
    9    9    6    2       -0.0660528349
    9    9    6    3       -0.0455245623
    9    9    6    6        0.3491530341
    9    1    7    4       -0.0085819240
    9    1    7    5       -0.0004456188
    9    2    7    4       -0.0117676965
    9    2    7    5       -0.0006110409
    9    3    7    4       -0.0062465611
    9    3    7    5       -0.0003243544
    9    4    7    1        0.0027680375
    9    4    7    2       -0.0402709102
    9    4    7    3       -0.0720477827
    9    4    7    6        0.0350386626
    9    4    7    7        0.0736375485
    9    5    7    1        0.0001437311
    9    5    7    2       -0.0020910783
    9    5    7    3       -0.0037411013
    9    5    7    6        0.0018193924
    9    5    7    7        0.0038236503
    9    6    7    4        0.0109111635
    9    6    7    5        0.0005665652
    9    7    7    4        0.0052275016
    9    7    7    5        0.0002714395
    9    8    7    4        0.0050625935
    9    8    7    5        0.0002628766
    9    9    7    1        0.0029081508
    9    9    7    2       -0.0483305932
    9    9    7    3       -0.0786264788
    9    9    7    6        0.0797477148
    9    9    7    7        0.4936615128
    9    1    8    4        0.0097971291
    9    1    8    5        0.0005087187
    9    2    8    4        0.0113857026
    9    2    8    5        0.0005912058
    9    3    8    4       -0.0187817027
    9    3    8    5       -0.0009752452
    9    4    8    1       -0.0025170471
    9    4    8    2        0.0210673814
    9    4    8    3       -0.0921827013
    9    4    8    6        0.0113984892
    9    4    8    7        0.0338271224
    9    4    8    8        0.1030164203
    9    5    8    1       -0.0001306984
    9    5    8    2        0.0010939297
    9    5    8    3       -0.0047866126
    9    5    8    6        0.0005918697
    9    5    8    7        0.0017564828
    9    5    8    8        0.0053491564
    9    6    8    4       -0.0056433850
    9    6    8    5       -0.0002930343
    9    7    8    4        0.0030199047
    9    7    8    5        0.0001568094
    9    8    8    4        0.0014203952
    9    8    8    5        0.0000737544
    9    9    8    1       -0.0044200840
    9    9    8    2        0.0273956545
    9    9    8    3       -0.1166892418
    9    9    8    6        0.0264663568
    9    9    8    7        0.0286146714
    9    9    8    8        0.5258010155
    9    1    9    1        0.0528577672
    9    2    9    1        0.0256543281
    9    2    9    2        0.0490944253
    9    3    9    1       -0.0086971238
    9    3    9    2       -0.0089091764
    9    3    9    3        0.0222110747
    9    4    9    4        0.1738597669
    9    5    9    4        0.0081064271
    9    5    9    5        0.0181635385
    9    6    9    1       -0.0089731803
    9    6    9    2       -0.0007961731
    9    6    9    3        0.0039588228
    9    6    9    6        0.0232401106
    9    7    9    1       -0.0054111745
    9    7    9    2       -0.0088222836
    9    7    9    3       -0.0005024049
    9    7    9    6        0.0034516621
    9    7    9    7        0.0131922314
    9    8    9    1        0.0083639873
    9    8    9    2        0.0131509316
    9    8    9    3       -0.0046166694
    9    8    9    6        0.0015180984
    9    8    9    7        0.0036687918
    9    8    9    8        0.0254760000
    9    9    9    4        0.1747305088
    9    9    9    5        0.0090729306
    9    9    9    9        0.6605746443
   10    4    1    1       -0.0291310846
   10    5    1    1        0.5610193096
   10   10    1    1        1.0923699066
   10    4    2    1        0.0008900327
   10    4    2    2       -0.0113367285
   10    5    2    1       -0.0171406437
   10    5    2    2        0.2183277316
   10   10    2    1       -0.0207116851
   10   10    2    2        0.7094442423
   10    4    3    1       -0.0001809365
   10    4    3    2        0.0015562465
   10    4    3    3       -0.0097753472
   10    5    3    1        0.0034845548
   10    5    3    2       -0.0299708829
   10    5    3    3        0.1882579592
   10   10    3    1        0.0055734924
   10   10    3    2       -0.0192622031
   10   10    3    3        0.6604495906
   10    1    4    1       -0.0023384865
   10    1    4    2       -0.0021443471
   10    1    4    3        0.0005826022
   10    2    4    1       -0.0011877393
   10    2    4    2       -0.0023276950
   10    2    4    3        0.0007821420
   10    3    4    1        0.0004044661
   10    3    4    2        0.0010883675
   10    3    4    3       -0.0007127135
   10    4    4    4       -0.0122660599
   10    5    4    4        0.2087243283
   10    6    4    1        0.0004390884
   10    6    4    2        0.0021644474
   10    6    4    3       -0.0001227176
   10    7    4    1        0.0002617867
   10    7    4    2        0.0006729406
   10    7    4    3        0.0005488968
   10    8    4    1       -0.0003941528
   10    8    4    2       -0.0008424653
   10    8    4    3        0.0013891012
   10    9    4    4       -0.0031412342
   10   10    4    4        0.6816247482
   10    1    5    1        0.0450356064
   10    1    5    2        0.0412967856
   10    1    5    3       -0.0112200110
   10    2    5    1        0.0228740088
   10    2    5    2        0.0448277804
   10    2    5    3       -0.0150628374
   10    3    5    1       -0.0077893875
   10    3    5    2       -0.0209602634
   10    3    5    3        0.0137257518
   10    4    5    4        0.0141159521
   10    4    5    5       -0.0108380691
   10    5    5    4       -0.0006950160
   10    5    5    5        0.2362252057
   10    6    5    1       -0.0084561589
   10    6    5    2       -0.0416838856
   10    6    5    3        0.0023633499
   10    7    5    1       -0.0050416046
   10    7    5    2       -0.0129597870
   10    7    5    3       -0.0105708969
   10    8    5    1        0.0075907693
   10    8    5    2        0.0162245690
   10    8    5    3       -0.0267519252
   10    9    5    4        0.0302358339
   10    9    5    5        0.0031412342
   10   10    5    4       -0.0031412342
   10   10    5    5        0.7419569165
   10    1    6    4        0.0003959389
   10    1    6    5       -0.0076251667
   10    2    6    4        0.0008949094
   10    2    6    5       -0.0172345602
   10    3    6    4        0.0000506331
   10    3    6    5       -0.0009751146
   10    4    6    1       -0.0002002620
   10    4    6    2        0.0027059064
   10    4    6    3        0.0016142635
   10    4    6    6       -0.0011522031
   10    5    6    1        0.0038567344
   10    5    6    2       -0.0521115425
   10    5    6    3       -0.0310882011
   10    5    6    6        0.0221896361
   10    6    6    4        0.0000873648
   10    6    6    5       -0.0016825104
   10    7    6    4       -0.0003310695
   10    7    6    5        0.0063758835
   10    8    6    4        0.0000261213
   10    8    6    5       -0.0005030560
   10   10    6    1        0.0045999075
   10   10    6    2       -0.0660528349
   10   10    6    3       -0.0455245623
   10   10    6    6        0.3491530341
   10    1    7    4        0.0004456188
   10    1    7    5       -0.0085819240
   10    2    7    4        0.0006110409
   10    2    7    5       -0.0117676965
   10    3    7    4        0.0003243544
   10    3    7    5       -0.0062465611
   10    4    7    1       -0.0001437311
   10    4    7    2        0.0020910783
   10    4    7    3        0.0037411013
   10    4    7    6       -0.0018193924
   10    4    7    7       -0.0038236503
   10    5    7    1        0.0027680375
   10    5    7    2       -0.0402709102
   10    5    7    3       -0.0720477827
   10    5    7    6        0.0350386626
   10    5    7    7        0.0736375485
   10    6    7    4       -0.0005665652
   10    6    7    5        0.0109111635
   10    7    7    4       -0.0002714395
   10    7    7    5        0.0052275016
   10    8    7    4       -0.0002628766
   10    8    7    5        0.0050625935
   10   10    7    1        0.0029081508
   10   10    7    2       -0.0483305932
   10   10    7    3       -0.0786264788
   10   10    7    6        0.0797477148
   10   10    7    7        0.4936615128
   10    1    8    4       -0.0005087187
   10    1    8    5        0.0097971291
   10    2    8    4       -0.0005912058
   10    2    8    5        0.0113857026
   10    3    8    4        0.0009752452
   10    3    8    5       -0.0187817027
   10    4    8    1        0.0001306984
   10    4    8    2       -0.0010939297
   10    4    8    3        0.0047866126
   10    4    8    6       -0.0005918697
   10    4    8    7       -0.0017564828
   10    4    8    8       -0.0053491564
   10    5    8    1       -0.0025170471
   10    5    8    2        0.0210673814
   10    5    8    3       -0.0921827013
   10    5    8    6        0.0113984892
   10    5    8    7        0.0338271224
   10    5    8    8        0.1030164203
   10    6    8    4        0.0002930343
   10    6    8    5       -0.0056433850
   10    7    8    4       -0.0001568094
   10    7    8    5        0.0030199047
   10    8    8    4       -0.0000737544
   10    8    8    5        0.0014203952
   10   10    8    1       -0.0044200840
   10   10    8    2        0.0273956545
   10   10    8    3       -0.1166892418
   10   10    8    6        0.0264663568
   10   10    8    7        0.0286146714
   10   10    8    8        0.5258010155
   10    4    9    4       -0.0081064271
   10    4    9    5        0.0208145344
   10    4    9    9       -0.0083355175
   10    5    9    4        0.1348816941
   10    5    9    5        0.0081064271
   10    5    9    9        0.1605290818
   10    9    9    4       -0.0003679461
   10    9    9    5        0.0070860695
   10   10    9    4        0.1605290818
   10   10    9    5        0.0083355175
   10   10    9    9        0.6030447877
   10    1   10    1        0.0528577672
   10    2   10    1        0.0256543281
   10    2   10    2        0.0490944253
   10    3   10    1       -0.0086971238
   10    3   10    2       -0.0089091764
   10    3   10    3        0.0222110747
   10    4   10    4        0.0181635385
   10    5   10    4       -0.0081064271
   10    5   10    5        0.1738597669
   10    6   10    1       -0.0089731803
   10    6   10    2       -0.0007961731
   10    6   10    3        0.0039588228
   10    6   10    6        0.0232401106
   10    7   10    1       -0.0054111745
   10    7   10    2       -0.0088222836
   10    7   10    3       -0.0005024049
   10    7   10    6        0.0034516621
   10    7   10    7        0.0131922314
   10    8   10    1        0.0083639873
   10    8   10    2        0.0131509316
   10    8   10    3       -0.0046166694
   10    8   10    6        0.0015180984
   10    8   10    7        0.0036687918
   10    8   10    8        0.0254760000
   10    9   10    4        0.0071153575
   10    9   10    5        0.0003694669
   10    9   10    9        0.0287649283
   10   10   10    4       -0.0090729306
   10   10   10    5        0.1747305088
   10   10   10   10        0.6605746443
 end_two_electron_integrals
 fcidump
      5.3553653141     1   1   1   1
     -0.5164631140     2   1   1   1
      0.0800724944     2   1   2   1
      1.2402145973     2   2   1   1
     -0.0193970520     2   2   2   1
      0.8866411842     2   2   2   2
      0.1388641826     3   1   1   1
     -0.0173426353     3   1   2   1
      0.0173455014     3   1   2   2
      0.0336100697     3   1   3   1
     -0.0820161889     3   2   1   1
      0.0091313707     3   2   2   1
      0.0314496182     3   2   2   2
      0.0299145699     3   2   3   1
      0.1633862626     3   2   3   2
      1.1304643585     3   3   1   1
     -0.0148422061     3   3   2   1
      0.8074485849     3   3   2   2
     -0.0068110266     3   3   3   1
     -0.0402986746     3   3   3   2
      0.8270534228     3   3   3   3
      0.0376721379     4   1   4   1
      0.0382107657     4   2   4   1
      0.1549501767     4   2   4   2
     -0.0101223298     4   3   4   1
     -0.0315120871     4   3   4   2
      0.0434393413     4   3   4   3
      1.2207781515     4   4   1   1
     -0.0152992279     4   4   2   1
      0.8421439379     4   4   2   2
      0.0049645877     4   4   3   1
     -0.0345022954     4   4   3   2
      0.7671014947     4   4   3   3
      0.8850646639     4   4   4   4
      0.0376721379     5   1   5   1
      0.0382107657     5   2   5   1
      0.1549501767     5   2   5   2
     -0.0101223298     5   3   5   1
     -0.0315120871     5   3   5   2
      0.0434393413     5   3   5   3
      0.0398424900     5   4   5   4
      1.2207781515     5   5   1   1
     -0.0152992279     5   5   2   1
      0.8421439379     5   5   2   2
      0.0049645877     5   5   3   1
     -0.0345022954     5   5   3   2
      0.7671014947     5   5   3   3
      0.8018025817     5   5   4   4
      0.8850646639     5   5   5   5
      0.1296593438     6   1   1   1
     -0.0221899373     6   1   2   1
      0.0016090840     6   1   2   2
     -0.0033102787     6   1   3   1
     -0.0106136523     6   1   3   2
      0.0060462392     6   1   3   3
      0.0027050423     6   1   4   4
      0.0027050423     6   1   5   5
      0.0082599959     6   1   6   1
     -0.1932784682     6   2   1   1
      0.0044610632     6   2   2   1
     -0.1065311183     6   2   2   2
     -0.0100866973     6   2   3   1
     -0.0208227913     6   2   3   2
     -0.0722087780     6   2   3   3
     -0.0927353819     6   2   4   4
     -0.0927353819     6   2   5   5
      0.0012390267     6   2   6   1
      0.0320078860     6   2   6   2
     -0.1285374561     6   3   1   1
      0.0013259831     6   3   2   1
     -0.0708489443     6   3   2   2
     -0.0034883144     6   3   3   1
      0.0084742969     6   3   3   2
     -0.0630478397     6   3   3   3
     -0.0645789980     6   3   4   4
     -0.0645789980     6   3   5   5
      0.0006253872     6   3   6   1
      0.0203613483     6   3   6   2
      0.0244687810     6   3   6   3
     -0.0070593852     6   4   4   1
     -0.0175057817     6   4   4   2
     -0.0028007944     6   4   4   3
      0.0115097698     6   4   6   4
     -0.0070593852     6   5   5   1
     -0.0175057817     6   5   5   2
     -0.0028007944     6   5   5   3
      0.0115097698     6   5   6   5
      0.4086225642     6   6   1   1
     -0.0014637704     6   6   2   1
      0.3823941076     6   6   2   2
      0.0065831462     6   6   3   1
      0.0447001105     6   6   3   2
      0.3658585916     6   6   3   3
      0.3594163294     6   6   4   4
      0.3594163294     6   6   5   5
     -0.0011590777     6   6   6   1
     -0.0099668678     6   6   6   2
      0.0111689691     6   6   6   3
      0.3508077221     6   6   6   6
      0.0937947467     7   1   1   1
     -0.0180525282     7   1   2   1
     -0.0037423352     7   1   2   2
     -0.0149517785     7   1   3   1
     -0.0205756356     7   1   3   2
      0.0098645064     7   1   3   3
      0.0011239392     7   1   4   4
      0.0011239392     7   1   5   5
      0.0099217688     7   1   6   1
      0.0046209506     7   1   6   2
      0.0015969808     7   1   6   3
     -0.0031851700     7   1   6   6
      0.0155652574     7   1   7   1
     -0.1492391023     7   2   1   1
      0.0026918074     7   2   2   1
     -0.0686417049     7   2   2   2
     -0.0150741698     7   2   3   1
     -0.0175632771     7   2   3   2
     -0.0100329379     7   2   3   3
     -0.0708792303     7   2   4   4
     -0.0708792303     7   2   5   5
      0.0032567091     7   2   6   1
      0.0324921711     7   2   6   2
      0.0216014537     7   2   6   3
      0.0020618739     7   2   6   6
      0.0086251161     7   2   7   1
      0.0609596556     7   2   7   2
     -0.2693233740     7   3   1   1
      0.0070131118     7   3   2   1
     -0.0945968854     7   3   2   2
      0.0048133465     7   3   3   1
      0.0789049100     7   3   3   2
     -0.1010112768     7   3   3   3
     -0.1126015634     7   3   4   4
     -0.1126015634     7   3   5   5
     -0.0030994066     7   3   6   1
      0.0279216483     7   3   6   2
      0.0413711362     7   3   6   3
      0.0242671677     7   3   6   6
     -0.0051283609     7   3   7   1
      0.0445019984     7   3   7   2
      0.1243572815     7   3   7   3
     -0.0082663519     7   4   4   1
     -0.0348165613     7   4   4   2
     -0.0068317457     7   4   4   3
      0.0092411681     7   4   6   4
      0.0202832133     7   4   7   4
     -0.0082663519     7   5   5   1
     -0.0348165613     7   5   5   2
     -0.0068317457     7   5   5   3
      0.0092411681     7   5   6   5
      0.0202832133     7   5   7   5
      0.1712664508     7   6   1   1
     -0.0024272506     7   6   2   1
      0.1187269002     7   6   2   2
      0.0059937507     7   6   3   1
      0.0285398680     7   6   3   2
      0.1103715690     7   6   3   3
      0.0980148292     7   6   4   4
      0.0980148292     7   6   5   5
     -0.0007661979     7   6   6   1
     -0.0159106837     7   6   6   2
     -0.0036833111     7   6   6   3
      0.0430257641     7   6   6   6
     -0.0025537292     7   6   7   1
      0.0016639233     7   6   7   2
      0.0119103556     7   6   7   3
      0.0449923784     7   6   7   6
      0.6813154304     7   7   1   1
     -0.0040009733     7   7   2   1
      0.6062983305     7   7   2   2
      0.0106582422     7   7   3   1
      0.1051868931     7   7   3   2
      0.5997595866     7   7   3   3
      0.5345652098     7   7   4   4
      0.5345652098     7   7   5   5
     -0.0013828901     7   7   6   1
     -0.0313997226     7   7   6   2
      0.0075615911     7   7   6   3
      0.4119741876     7   7   6   6
     -0.0042847506     7   7   7   1
      0.0428139312     7   7   7   2
      0.0873613266     7   7   7   3
      0.1330485150     7   7   7   6
      0.7307907065     7   7   7   7
     -0.1273835184     8   1   1   1
      0.0162994400     8   1   2   1
     -0.0144729566     8   1   2   2
     -0.0312592435     8   1   3   1
     -0.0244066805     8   1   3   2
      0.0054494430     8   1   3   3
     -0.0034570355     8   1   4   4
     -0.0034570355     8   1   5   5
      0.0027744564     8   1   6   1
      0.0083396541     8   1   6   2
      0.0030541136     8   1   6   3
     -0.0052417934     8   1   6   6
      0.0133401753     8   1   7   1
      0.0125737221     8   1   7   2
     -0.0032842794     8   1   7   3
     -0.0048911260     8   1   7   6
     -0.0084716656     8   1   7   7
      0.0282159704     8   1   8   1
      0.0720671364     8   2   1   1
     -0.0061543091     8   2   2   1
      0.0090767007     8   2   2   2
     -0.0129983838     8   2   3   1
     -0.0447870714     8   2   3   2
      0.0132906752     8   2   3   3
      0.0353364053     8   2   4   4
      0.0353364053     8   2   5   5
      0.0054413373     8   2   6   1
      0.0059524932     8   2   6   2
      0.0081399098     8   2   6   3
      0.0020720895     8   2   6   6
      0.0097867639     8   2   7   1
      0.0039397263     8   2   7   2
     -0.0161682128     8   2   7   3
     -0.0051910386     8   2   7   6
     -0.0122206473     8   2   7   7
      0.0110798612     8   2   8   1
      0.0382090643     8   2   8   2
     -0.3795243743     8   3   1   1
      0.0114954231     8   3   2   1
     -0.1716895787     8   3   2   2
     -0.0006370690     8   3   3   1
     -0.0169938558     8   3   3   2
     -0.1557539494     8   3   3   3
     -0.1488086143     8   3   4   4
     -0.1488086143     8   3   5   5
     -0.0033505064     8   3   6   1
      0.0376907097     8   3   6   2
      0.0185853097     8   3   6   3
     -0.0324824496     8   3   6   6
     -0.0041257666     8   3   7   1
      0.0141706390     8   3   7   2
      0.0322987073     8   3   7   3
     -0.0318163084     8   3   7   6
     -0.1050409391     8   3   7   7
      0.0003431212     8   3   8   1
     -0.0145401426     8   3   8   2
      0.1032482790     8   3   8   3
      0.0091308095     8   4   4   1
      0.0305007907     8   4   4   2
[...]
 tce:restart_ignore_failure           logical[4]      Tue Jul 30 17:21:35 2019 
 tce:guess_lr_real                    logical[1]      Tue Jul 30 17:21:35 2019 
 basis:ao basis:tags info                 int[280]    Tue Jul 30 17:21:35 2019 
 tce:skip_t                           logical[1]      Tue Jul 30 17:21:35 2019 
 tce:hbard                                int[1]      Tue Jul 30 17:21:35 2019 
 tce:diagnt1                          logical[1]      Tue Jul 30 17:21:35 2019 
 geometry:geometry:zmt_ijkang_frz        logical[160]    Tue Jul 30 17:21:35 2019 
 tce:read_integrals                   logical[5]      Tue Jul 30 17:21:35 2019 
 tce:bnumfreq                             int[1]      Tue Jul 30 17:21:35 2019 
 tce:ccsdvar                             char[5]      Tue Jul 30 17:21:35 2019 
 tce:lineresp                         logical[1]      Tue Jul 30 17:21:35 2019 
 tce:save_l                           logical[4]      Tue Jul 30 17:21:35 2019 
 tce:ichopx                               int[1]      Tue Jul 30 17:21:35 2019 
 tce:nogamma                          logical[1]      Tue Jul 30 17:21:35 2019 
 scf:dipole                            double[3]      Tue Jul 30 17:21:35 2019 
 geometry:ngeom                           int[1]      Tue Jul 30 17:21:35 2019 
 tce:uact                                 int[1]      Tue Jul 30 17:21:35 2019 
 geometry:geometry:zmt_ijklto             int[640]    Tue Jul 30 17:21:35 2019 
 tce:save_tr                          logical[8]      Tue Jul 30 17:21:35 2019 
 geometry:geometry:zmt_ijklnb             int[640]    Tue Jul 30 17:21:35 2019 
 geometry:geometry:operators           double[2304]   Tue Jul 30 17:21:35 2019 
 tce:zlshiftl                          double[1]      Tue Jul 30 17:21:35 2019 
 tce:skip_tr                          logical[1]      Tue Jul 30 17:21:35 2019 
 basis:ao basis:star nr tags              int[1]      Tue Jul 30 17:21:35 2019 
 geometry:geometry:zmt_ijkang_val         double[160]    Tue Jul 30 17:21:35 2019 
 tce:anumfreq                             int[1]      Tue Jul 30 17:21:35 2019 
 geometry:geometry:zmt_ijklto_nam           char[160]    Tue Jul 30 17:21:35 2019 
 geometry:geometry:zmt_ijklop_frz        logical[160]    Tue Jul 30 17:21:35 2019 
 tce:save_t                           logical[4]      Tue Jul 30 17:21:35 2019 
 geometry:geometry:zmt_varsign         double[1]      Tue Jul 30 17:21:35 2019 
 geometry:geometry:recip vectors         double[3]      Tue Jul 30 17:21:35 2019 
 tce:model                               char[5]      Tue Jul 30 17:21:35 2019 
 tce:maxiter                              int[1]      Tue Jul 30 17:21:35 2019 
 tce:symmetry                         logical[1]      Tue Jul 30 17:21:35 2019 
 tce:save_x                           logical[4]      Tue Jul 30 17:21:35 2019 
 geometry:geometry:no. unique centers            int[1]      Tue Jul 30 17:21:35 2019 
 basis:ao basis:contraction info            int[90000]  Tue Jul 30 17:21:35 2019 
 tce:save_y                           logical[4]      Tue Jul 30 17:21:35 2019 
 geometry:geometry:zmt_izmat              int[3]      Tue Jul 30 17:21:35 2019 
 basis:ao basis:bs_nr_tags                int[1]      Tue Jul 30 17:21:35 2019 
 geometry:geometry:zmt_ijklop_val         double[160]    Tue Jul 30 17:21:35 2019 
 geometry:geometry:group number            int[1]      Tue Jul 30 17:21:35 2019 
 tce:nactv                                int[1]      Tue Jul 30 17:21:35 2019 
 tce:active_va                            int[1]      Tue Jul 30 17:21:35 2019 
 geometry:geometry:recip angles         double[3]      Tue Jul 30 17:21:35 2019 
 tce:active_vb                            int[1]      Tue Jul 30 17:21:35 2019 
 tce:active_oa                            int[1]      Tue Jul 30 17:21:35 2019 
 tce:active_ob                            int[1]      Tue Jul 30 17:21:35 2019 
 geometry:geometry:zmt_varname           char[2]      Tue Jul 30 17:21:35 2019 
 tce:thresh                            double[1]      Tue Jul 30 17:21:35 2019 
 geometry:geometry:system type            int[1]      Tue Jul 30 17:21:35 2019 
 tce:energy                            double[1]      Tue Jul 30 17:21:46 2019 
 tce:nopolar                          logical[1]      Tue Jul 30 17:21:35 2019 
 basis:ao basis:bs_stdname               char[16]     Tue Jul 30 17:21:35 2019 
 geometry:geometry:charges             double[2]      Tue Jul 30 17:21:35 2019 
 tce:respaxis                         logical[3]      Tue Jul 30 17:21:35 2019 
 tce:perturbative                        char[5]      Tue Jul 30 17:21:35 2019 
 scf:multiplicity                        char[8]      Tue Jul 30 17:21:35 2019 
 geometry:geometry:zmt_nizmat             int[1]      Tue Jul 30 17:21:35 2019 
 scf:output vectors                      char[24]     Tue Jul 30 17:21:35 2019 
 basis:ao basis:header                    int[7]      Tue Jul 30 17:21:35 2019 
 geometry:geometry:zmt_cvr_scaling         double[1]      Tue Jul 30 17:21:35 2019 
 geometry:geometry:tags                  char[4]      Tue Jul 30 17:21:35 2019 
 scf:input vectors                       char[24]     Tue Jul 30 17:21:35 2019 
 geometry:geometry:zmt_ijklnb_nam           char[160]    Tue Jul 30 17:21:35 2019 
 geometry:geometry:zmt_ijklto_frz        logical[160]    Tue Jul 30 17:21:35 2019 
 geometry:geometry:include_bqbq        logical[1]      Tue Jul 30 17:21:35 2019 
 tce:qducc                            logical[1]      Tue Jul 30 17:21:35 2019 
 geometry:geometry:zmt_ijklop             int[640]    Tue Jul 30 17:21:35 2019 
 geometry:geometry:group name            char[3]      Tue Jul 30 17:21:35 2019 
 tce:model2e                             char[6]      Tue Jul 30 17:21:35 2019 
 tce:eactmax                           double[1]      Tue Jul 30 17:21:35 2019 
 tce:zlshift2                          double[2]      Tue Jul 30 17:21:35 2019 
 tce:eactmin                           double[1]      Tue Jul 30 17:21:35 2019 
 basisprint:ao basis                  logical[1]      Tue Jul 30 17:21:35 2019 
 tce:oact                                 int[1]      Tue Jul 30 17:21:35 2019 
 tce:zlshift3                          double[2]      Tue Jul 30 17:21:35 2019 
 tce:densmat                          logical[1]      Tue Jul 30 17:21:35 2019 
 tce:nroots                               int[1]      Tue Jul 30 17:21:35 2019 
 geometry:geometry:zmt_ijklto_val         double[160]    Tue Jul 30 17:21:35 2019 
 geometry:geometry:zmt_maxtor             int[1]      Tue Jul 30 17:21:35 2019 
 scf:converged                        logical[1]      Tue Jul 30 17:21:35 2019 
 scf:nelec                                int[1]      Tue Jul 30 17:21:35 2019 
 tce:maxdiff                           double[1]      Tue Jul 30 17:21:35 2019 
 tce:guess_qr_real                    logical[1]      Tue Jul 30 17:21:35 2019 
 basis:ao basis:number of exps and coeffs            int[1]      Tue Jul 30 17:21:35 2019 
 geometry:names                          char[9]      Tue Jul 30 17:21:35 2019 
 geometry:geometry:masses              double[2]      Tue Jul 30 17:21:35 2019 
 tce:zlshift                           double[1]      Tue Jul 30 17:21:35 2019 
 tce:eoms                                 int[1]      Tue Jul 30 17:21:35 2019 
 tce:ampnorms                         logical[1]      Tue Jul 30 17:21:35 2019 
 scf:scftype                             char[4]      Tue Jul 30 17:21:35 2019 
 tce:diis2                                int[1]      Tue Jul 30 17:21:35 2019 
 tce:read_l                           logical[4]      Tue Jul 30 17:21:35 2019 
 tce:enegr                             double[1]      Tue Jul 30 17:21:46 2019 
 basis:ao basis:exps and coeffs         double[54]     Tue Jul 30 17:21:35 2019 
 tce:diis3                                int[1]      Tue Jul 30 17:21:35 2019 
 geometry:geometry:unique centers            int[2]      Tue Jul 30 17:21:35 2019 
 tce:read_lr                          logical[8]      Tue Jul 30 17:21:35 2019 
 geometry:geometry:zmt_ijbond_nam           char[160]    Tue Jul 30 17:21:35 2019 
 geometry:geometry:amatrix             double[9]      Tue Jul 30 17:21:35 2019 
 geometry:geometry:inv nuc expon         double[2]      Tue Jul 30 17:21:35 2019 
 geometry:geometry:zmt_ijklnb_val         double[160]    Tue Jul 30 17:21:35 2019 
 geometry:geometry:vel                 double[6]      Tue Jul 30 17:21:35 2019 
 geometry:geometry:zmt_ijklnb_frz        logical[160]    Tue Jul 30 17:21:35 2019 
 task:status                          logical[1]      Tue Jul 30 17:21:46 2019 
 geometry:geometry:direct volume         double[1]      Tue Jul 30 17:21:35 2019 
 tce:afreq                             double[1]      Tue Jul 30 17:21:35 2019 
 geometry:geometry:num_operators            int[1]      Tue Jul 30 17:21:35 2019 
 tce:read_t                           logical[4]      Tue Jul 30 17:21:35 2019 
 tce:save_interval                        int[1]      Tue Jul 30 17:21:35 2019 
 basis:nbasis                             int[1]      Tue Jul 30 17:21:35 2019 
 file_prefix                             char[15]     Tue Jul 30 17:21:35 2019 
 geometry:geometry:primitive_center           char[2]      Tue Jul 30 17:21:35 2019 
 task:energy                           double[1]      Tue Jul 30 17:21:46 2019 
 geometry:geometry:ncenter                int[1]      Tue Jul 30 17:21:35 2019 
 tce:idiskx                               int[1]      Tue Jul 30 17:21:35 2019 
 tce:damp2                             double[1]      Tue Jul 30 17:21:35 2019 
 geometry:geometry:zmt_nzvar              int[1]      Tue Jul 30 17:21:35 2019 
 tce:quadresp                         logical[1]      Tue Jul 30 17:21:35 2019 
 tce:damp3                             double[1]      Tue Jul 30 17:21:35 2019 
 scf:thresh                            double[1]      Tue Jul 30 17:21:35 2019 
 scf:energy                            double[1]      Tue Jul 30 17:21:35 2019 
 tce:read_tr                          logical[8]      Tue Jul 30 17:21:35 2019 
 tce:read_x                           logical[4]      Tue Jul 30 17:21:35 2019 
 basis:ao basis:assoc ecp name           char[4]      Tue Jul 30 17:21:35 2019 
 tce:read_y                           logical[4]      Tue Jul 30 17:21:35 2019 
 geometry:geometry:zmt_ijbond             int[320]    Tue Jul 30 17:21:35 2019 
 geometry:geometry:zmt_source            char[6]      Tue Jul 30 17:21:35 2019 
 geometry:geometry:setting number            int[1]      Tue Jul 30 17:21:35 2019 
 tce:act_excit_lvl                        int[1]      Tue Jul 30 17:21:35 2019 
 basis:ao basis:bs_tags                  char[4]      Tue Jul 30 17:21:35 2019 
 tce:i4im                                 int[1]      Tue Jul 30 17:21:35 2019 
 scf:tol2e                             double[1]      Tue Jul 30 17:21:35 2019 
 tce:diis                                 int[1]      Tue Jul 30 17:21:35 2019 
 tce:recompf                          logical[1]      Tue Jul 30 17:21:35 2019 
 rtdb:stored:state                    logical[3]      Tue Jul 30 17:21:35 2019 
 scf:alpha irreps                         int[19]     Tue Jul 30 17:21:35 2019 
 tce:module                              char[4]      Tue Jul 30 17:21:35 2019 
 geometry:geometry:zmt_ijbond_frz        logical[160]    Tue Jul 30 17:21:35 2019 
 tce:target                               int[1]      Tue Jul 30 17:21:35 2019 
 tce:left                             logical[1]      Tue Jul 30 17:21:35 2019 


 HDBM usage statistics
 ---------------------
 Reads         = 1932
 Inserts       = 1090
 Replaces      = 374
 Extracts      = 0
 Deletes       = 2166
 Reuses        = 16

 Memory allocs = 10066
 Memory frees  = 10066
 Memory max    = 1519711
 Memory in use = 0

 IO seeks      = 4075
 IO reads      = 2964
 IO writes     = 3289
 IO nread      = 3222024
 IO nwrite     = 2392636

 Summary of allocated global arrays
-----------------------------------
  No active global arrays



                         GA Statistics for process    0
                         ------------------------------

       create   destroy   get      put      acc     scatter   gather  read&inc
calls: 2076     2076     6520     2604     3407        0        0     4357     
number of processes/call 6.96e+14 -3.11e+15 2.15e+13 0.00e+00 0.00e+00
bytes total:             1.86e+08 9.46e+06 4.47e+07 0.00e+00 0.00e+00 3.49e+04
bytes remote:            0.00e+00 0.00e+00 0.00e+00 0.00e+00 0.00e+00 0.00e+00
Max memory consumed for GA by this process: 1663800 bytes

MA_summarize_allocated_blocks: starting scan ...
MA_summarize_allocated_blocks: scan completed: 0 heap blocks, 0 stack blocks
MA usage statistics:

	allocation statistics:
					      heap	     stack
					      ----	     -----
	current number of blocks	         0	         0
	maximum number of blocks	        17	        40
	current total bytes		         0	         0
	maximum total bytes		   1060368	  55520424
	maximum total K-bytes		      1061	     55521
	maximum total M-bytes		         2	        56

	calls per routine:
		        39  MA_alloc_get
		        39  MA_allocate_heap
		       157  MA_chop_stack
		        39  MA_free_heap
		         0  MA_free_heap_piece
		     15432  MA_get_index
		         5  MA_get_mbase
		         0  MA_get_next_memhandle
		         0  MA_get_numalign
		        41  MA_get_pointer
		         1  MA_init
		         0  MA_initialized
		         0  MA_init_memhandle_iterator
		       202  MA_inquire_avail
		         1  MA_inquire_heap
		         0  MA_inquire_heap_check_stack
		         0  MA_inquire_heap_no_partition
		         1  MA_inquire_stack
		         0  MA_inquire_stack_check_heap
		         0  MA_inquire_stack_no_partition
		     15200  MA_pop_stack
		         1  MA_print_stats
		     15393  MA_push_get
		     15434  MA_push_stack
		         3  MA_set_auto_verify
		         1  MA_set_error_print
		         3  MA_set_hard_fail
		         1  MA_set_numalign
		      9236  MA_sizeof
		        21  MA_sizeof_overhead
		         1  MA_summarize_allocated_blocks
		         0  MA_trace
		     55799  MA_verify_allocator_stuff


                                     CITATION
                                     --------
                Please cite the following reference when publishing
                           results obtained with NWChem:

                 M. Valiev, E.J. Bylaska, N. Govind, K. Kowalski,
              T.P. Straatsma, H.J.J. van Dam, D. Wang, J. Nieplocha,
                        E. Apra, T.L. Windus, W.A. de Jong
                 "NWChem: a comprehensive and scalable open-source
                  solution for large scale molecular simulations"
                      Comput. Phys. Commun. 181, 1477 (2010)
                           doi:10.1016/j.cpc.2010.04.018

                                      AUTHORS
                                      -------
          E. Apra, E. J. Bylaska, W. A. de Jong, N. Govind, K. Kowalski,
       T. P. Straatsma, M. Valiev, H. J. J. van Dam, D. Wang, T. L. Windus,
        J. Hammond, J. Autschbach, K. Bhaskaran-Nair, J. Brabec, K. Lopata,
    S. A. Fischer, S. Krishnamoorthy, M. Jacquelin, W. Ma, M. Klemm, O. Villa,
      Y. Chen, V. Anisimov, F. Aquino, S. Hirata, M. T. Hackler, V. Konjkov,
            D. Mejia-Rodriguez, T. Risthaus, M. Malagoli, A. Marenich,
   A. Otero-de-la-Roza, J. Mullin, P. Nichols, R. Peverati, J. Pittner, Y. Zhao,
        P.-D. Fan, A. Fonari, M. J. Williamson, R. J. Harrison, J. R. Rehr,
      M. Dupuis, D. Silverstein, D. M. A. Smith, J. Nieplocha, V. Tipparaju,
    M. Krishnan, B. E. Van Kuiken, A. Vazquez-Mayagoitia, L. Jensen, M. Swart,
      Q. Wu, T. Van Voorhis, A. A. Auer, M. Nooijen, L. D. Crosby, E. Brown,
      G. Cisneros, G. I. Fann, H. Fruchtl, J. Garza, K. Hirao, R. A. Kendall,
      J. A. Nichols, K. Tsemekhman, K. Wolinski, J. Anchell, D. E. Bernholdt,
      P. Borowski, T. Clark, D. Clerc, H. Dachsel, M. J. O. Deegan, K. Dyall,
    D. Elwood, E. Glendening, M. Gutowski, A. C. Hess, J. Jaffe, B. G. Johnson,
     J. Ju, R. Kobayashi, R. Kutteh, Z. Lin, R. Littlefield, X. Long, B. Meng,
      T. Nakajima, S. Niu, L. Pollack, M. Rosing, K. Glaesemann, G. Sandrone,
      M. Stave, H. Taylor, G. Thomas, J. H. van Lenthe, A. T. Wong, Z. Zhang.

                                    REFERENCES
                                    ----------

          Where appropriate, please cite the following reference(s) 
          when publishing results obtained with NWChem:


     1. D. E. Bernholdt, E. Apra, H. A. Fruchtl, M.F. Guest, R. J. Harrison, 
        R. A. Kendall, R. A. Kutteh, X. Long, J. B. Nicholas, J. A. Nichols, 
        H. L. Taylor, A. T. Wong, G. I. Fann, R. J. Littlefield and
        J. Nieplocha,
        "Parallel Computational Chemistry Made Easier: 
        The Development of NWChem,"
        Int. J. Quantum Chem. Symposium  29, 475-483 (1995).


     2. M. F. Guest, E. Apra, D. E. Bernholdt, H. A. Fruchtl, R. J. Harrison, 
        R. A. Kendall, R. A. Kutteh, X. Long, J. B. Nicholas, J. A. Nichols, 
        H. L. Taylor, A. T. Wong, G. I. Fann, R. J. Littlefield and
        J. Nieplocha,
        "High Performance Computational Chemistry: NWChem and Fully Distributed
        Parallel Applications", in Advances in Parallel Computing, 10, High
        Performance Computing: Technology, Methods, and Applications, Eds. 
        J. Dongarra, L. Gradinetti, G. Joubert, and J. Kowalik, 
        (Elsevier Science B. V. pp. 395-427, 1995).


     3. M. F. Guest, E. Apra, D. E. Bernholdt, H. A. Fruchtl, R. J. Harrison, 
        R. A. Kendall, R. A. Kutteh, J. B. Nicholas, J. A. Nichols, M. S. Stave,
        A. T. Wong, R. J. Littlefield and J. Nieplocha, "High Performance 
        Computational Chemistry: Towards Fully Distributed Parallel Algorithms",
        in High Performance Computing: Symposium 1995, Grand Challenges in 
        Computer Simulation, Adrian M. Tentner, Editor, Proceedings of the 1995 
        Simulation Multiconference, April 9-13, 1995, Phoenix, Arizona, 
        Simulation Councils, Inc., The Society for Computer Simulation, 
        San Diego, CA, 1995. pp. 511-521.


     4. M. F. Guest, E. Apra, D. E. Bernholdt, H. A. Fruchtl, R. J. Harrison,
        R. A. Kendall, R. A. Kutteh, X. Long, J. B. Nicholas, J. A. Nichols, 
        H. L. Taylor, A. T. Wong, G. I. Fann, R. J. Littlefield and
        J. Nieplocha,
        "Advances in Parallel Distributed Data Software; Computational Chemistry
        and NWChem", in Applied Parallel Computing.  Computations in Physics,
        Chemistry, and Engineering Science, Eds. J. Wasnieski, J. Dongarra, and 
        K. Madsen, Lecture Notes in Computer Science, 1041,
        (Springer-Verlag, Berlin, 278-294, 1996).


     5. M. F. Guest, E. Apra, D. E. Bernholdt, H. A. Fruchtl, R. J. Harrison,
        R. A. Kendall, R. A. Kutteh, X. Long, J. B. Nicholas, J. A. Nichols, 
        H. L. Taylor, A. T. Wong, G. I. Fann, R. J. Littlefield and
        J. Nieplocha, 
        "High-Performance Computing in Chemistry; NWChem", Future 
        Generations Computer Systems  12(4), 273, (1996).


     6. R. A. Kendall, E. Apra, D. E. Bernholdt, E. J. Bylaska, M. Dupuis,
        G. I. Fann, R. J. Harrison, J. Ju, J. A. Nichols, J. Nieplocha,
        T. P. Straatsma, T. L. Windus, A. T. Wong,
        Computer Phys. Comm. 128, 260 (2000).


     7. T. P. Straatsma and V. Helms, in Molecular Dynamics on Parallel
        Computers2000, R. Esser et al. editors, p 70.


     8.  T. P. Straatsma, M. Philippopoulos and J. A. McCammon,
         Computer Phys. Comm. 128, 377 (2000).


     9.  M. Valiev, E. J. Bylaska, A. Gramada, and J. H. Weare,
         Reviews in Modern Quantum Chemistry, pages 1684-1734
         (World Scientific, Singapore, 2002).


    10.  E. J. Bylaska, M. Valiev, R. Kawai, and J. H. Weare,
         Computer Phys. Comm. 143, 11 (2002).


    11.  M. Valiev and J. H. Weare,
         J. Phys. Chem. A, 103, 10588 (1999).



 Total times  cpu:       11.0s     wall:       11.0s
