 argument  1 = originalHF.nw
  NWChem w/ OpenMP: maximum threads =    4



============================== echo of input deck ==============================
start tce_hf_2.5212

echo
memory total 6 gb
print high

geometry units angstrom
symmetry c1
H  0.0000000  0.0000  2.5212
F  0.0000000  0.0000  0.00000
end


basis spherical
H library cc-pvdz
F library cc-pvdz
end

scf
thresh 1.0e-10
tol2e 1.0e-10
singlet
rhf
end

tce
2eorb
2emet 13
thresh 1.0d-8
ccsd
end

set tce:qducc T
set tce:nactv 5

task tce energy

================================================================================


                                         
                                         


              Northwest Computational Chemistry Package (NWChem) 6.8
              ------------------------------------------------------


                    Environmental Molecular Sciences Laboratory
                       Pacific Northwest National Laboratory
                                Richland, WA 99352

                              Copyright (c) 1994-2018
                       Pacific Northwest National Laboratory
                            Battelle Memorial Institute

             NWChem is an open-source computational chemistry package
                        distributed under the terms of the
                      Educational Community License (ECL) 2.0
             A copy of the license is included with this distribution
                              in the LICENSE.TXT file

                                  ACKNOWLEDGMENT
                                  --------------

            This software and its documentation were developed at the
            EMSL at Pacific Northwest National Laboratory, a multiprogram
            national laboratory, operated for the U.S. Department of Energy
            by Battelle under Contract Number DE-AC05-76RL01830. Support
            for this work was provided by the Department of Energy Office
            of Biological and Environmental Research, Office of Basic
            Energy Sciences, and the Office of Advanced Scientific Computing.


           Job information
           ---------------

    hostname        = WE27583
    program         = /Users/lamm799/nwchem/bin/MACX64/nwchem
    date            = Wed Jul 31 08:47:16 2019

    compiled        = Mon_Jul_15_13:12:43_2019
    source          = /Users/lamm799/nwchem
    nwchem branch   = Development
    nwchem revision = nwchem_on_git-975-g459e4567d
    ga revision     = 5.7.0
    use scalapack   = F
    input           = originalHF.nw
    prefix          = tce_hf_2.5212.
    data base       = ./tce_hf_2.5212.db
    status          = startup
    nproc           =        1
    time left       =     -1s



           Memory information
           ------------------

    heap     =  201326588 doubles =   1536.0 Mbytes
    stack    =  201326593 doubles =   1536.0 Mbytes
    global   =  402653184 doubles =   3072.0 Mbytes (distinct from heap & stack)
    total    =  805306365 doubles =   6144.0 Mbytes
    verify   = yes
    hardfail = no 


           Directory information
           ---------------------

  0 permanent = .
  0 scratch   = .




                                NWChem Input Module
                                -------------------



 Scaling coordinates for geometry "geometry" by  1.889725989
 (inverse scale =  0.529177249)

 Turning off AUTOSYM since
 SYMMETRY directive was detected!

     MOLECULAR POINT GROUP NUMBER =  1     SCHOENFLIES SYMBOL = C1        

                --------------- GROUP GENERATORS ---------------

                      1 GENERATORS USED TO FORM THE GROUP

                         PT fold Rotoinversion Operator
                     1.000000  0.000000  0.000000  0.000000
                     0.000000  1.000000  0.000000  0.000000
                     0.000000  0.000000  1.000000  0.000000


The   1 symmetry operators (excl. E) are as follows:



                    ---------- FULL LISTING OF GROUP ----------

                  MATRIX REPRESENTATIONS OF THE GROUP OPERATORS

     EXCLUDING THE IDENTITY OPERATOR THERE ARE  1 OPERATORS IN THIS GROUP

                         pt fold Rotoinversion Operator
                     1.000000  0.000000  0.000000  0.000000
                     0.000000  1.000000  0.000000  0.000000
                     0.000000  0.000000  1.000000  0.000000


                  <<< SYMMETRY OPERATION/ATOM MAPPING BUILT >>>
      Symmetry information
      --------------------

 Group name             C1        
 Group number              1
 Group order               1
 No. of unique centers     2



                  Character table for group C1      

                  1e     
        a          1.000

      Symmetry unique atoms

     1    2

      Mapping of centers


      Group operations



          ------
          auto-z
          ------
     1 autoz failed with cvr_scaling = 1.2 changing to 1.3
     2 autoz failed with cvr_scaling = 1.3 changing to 1.4
     3 autoz failed with cvr_scaling = 1.4 changing to 1.5
     4 autoz failed with cvr_scaling = 1.5 changing to 1.6
     5 autoz failed with cvr_scaling = 1.6 changing to 1.7

 AUTOZ failed to generate good internal coordinates.
 Cartesian coordinates will be used in optimizations.



                             Geometry "geometry" -> ""
                             -------------------------

 Output coordinates in angstroms (scale by  1.889725989 to convert to a.u.)

  No.       Tag          Charge          X              Y              Z
 ---- ---------------- ---------- -------------- -------------- --------------
    1 H                    1.0000     0.00000000     0.00000000     2.26908000
    2 F                    9.0000     0.00000000     0.00000000    -0.25212000

      Atomic Mass 
      ----------- 

      H                  1.007825
      F                 18.998400


 Effective nuclear repulsion energy (a.u.)       1.8890192135

            Nuclear Dipole moment (a.u.) 
            ----------------------------
        X                 Y               Z
 ---------------- ---------------- ----------------
     0.0000000000     0.0000000000     0.0000000000


            XYZ format geometry
            -------------------
     2
 geometry
 H                     0.00000000     0.00000000     2.26908000
 F                     0.00000000     0.00000000    -0.25212000

                      Basis "ao basis" -> "" (spherical)
                      -----
  H (Hydrogen)
  ------------
            Exponent  Coefficients 
       -------------- ---------------------------------------------------------
  1 S  1.30100000E+01  0.019685
  1 S  1.96200000E+00  0.137977
  1 S  4.44600000E-01  0.478148

  2 S  1.22000000E-01  1.000000

  3 P  7.27000000E-01  1.000000

  F (Fluorine)
  ------------
            Exponent  Coefficients 
       -------------- ---------------------------------------------------------
  1 S  1.47100000E+04  0.000721
  1 S  2.20700000E+03  0.005553
  1 S  5.02800000E+02  0.028267
  1 S  1.42600000E+02  0.106444
  1 S  4.64700000E+01  0.286814
  1 S  1.67000000E+01  0.448641
  1 S  6.35600000E+00  0.264761
  1 S  1.31600000E+00  0.015333

  2 S  1.47100000E+04 -0.000165
  2 S  2.20700000E+03 -0.001308
  2 S  5.02800000E+02 -0.006495
  2 S  1.42600000E+02 -0.026691
  2 S  4.64700000E+01 -0.073690
  2 S  1.67000000E+01 -0.170776
  2 S  6.35600000E+00 -0.112327
  2 S  1.31600000E+00  0.562814

  3 S  3.89700000E-01  1.000000

  4 P  2.26700000E+01  0.044878
  4 P  4.97700000E+00  0.235718
  4 P  1.34700000E+00  0.508521

  5 P  3.47100000E-01  1.000000

  6 D  1.64000000E+00  1.000000



 Summary of "ao basis" -> "" (spherical)
 ------------------------------------------------------------------------------
       Tag                 Description            Shells   Functions and Types
 ---------------- ------------------------------  ------  ---------------------
 H                          cc-pvdz                  3        5   2s1p
 F                          cc-pvdz                  6       14   3s2p1d



 Setting fock-build task_bf   :      -1
                    maxquartet:   10000
                    maxeri    :  129600
                    maxscr    :       0
                    intacc    : 0.0D+00
                    denscreen : T
                    dentol    : 1.0D-06

                                 NWChem SCF Module
                                 -----------------



  ao basis        = "ao basis"
  functions       =    19
  atoms           =     2
  closed shells   =     5
  open shells     =     0
  charge          =   0.00
  wavefunction    = RHF 
  input vectors   = atomic
  output vectors  = ./tce_hf_2.5212.movecs
  use symmetry    = F
  symmetry adapt  = F


 Summary of "ao basis" -> "ao basis" (spherical)
 ------------------------------------------------------------------------------
       Tag                 Description            Shells   Functions and Types
 ---------------- ------------------------------  ------  ---------------------
 H                          cc-pvdz                  3        5   2s1p
 F                          cc-pvdz                  6       14   3s2p1d




                         Geometry "geometry" -> "geometry"
                         ---------------------------------

 Output coordinates in angstroms (scale by  1.889725989 to convert to a.u.)

  No.       Tag          Charge          X              Y              Z
 ---- ---------------- ---------- -------------- -------------- --------------
    1 H                    1.0000     0.00000000     0.00000000     2.26908000
    2 F                    9.0000     0.00000000     0.00000000    -0.25212000

      Atomic Mass 
      ----------- 

      H                  1.007825
      F                 18.998400


 Effective nuclear repulsion energy (a.u.)       1.8890192135

            Nuclear Dipole moment (a.u.) 
            ----------------------------
        X                 Y               Z
 ---------------- ---------------- ----------------
     0.0000000000     0.0000000000     0.0000000000


                      Basis "ao basis" -> "ao basis" (spherical)
                      -----
  H (Hydrogen)
  ------------
            Exponent  Coefficients 
       -------------- ---------------------------------------------------------
  1 S  1.30100000E+01  0.019685
  1 S  1.96200000E+00  0.137977
  1 S  4.44600000E-01  0.478148

  2 S  1.22000000E-01  1.000000

  3 P  7.27000000E-01  1.000000

  F (Fluorine)
  ------------
            Exponent  Coefficients 
       -------------- ---------------------------------------------------------
  1 S  1.47100000E+04  0.000721
  1 S  2.20700000E+03  0.005553
  1 S  5.02800000E+02  0.028267
  1 S  1.42600000E+02  0.106444
  1 S  4.64700000E+01  0.286814
  1 S  1.67000000E+01  0.448641
  1 S  6.35600000E+00  0.264761
  1 S  1.31600000E+00  0.015333

  2 S  1.47100000E+04 -0.000165
  2 S  2.20700000E+03 -0.001308
  2 S  5.02800000E+02 -0.006495
  2 S  1.42600000E+02 -0.026691
  2 S  4.64700000E+01 -0.073690
  2 S  1.67000000E+01 -0.170776
  2 S  6.35600000E+00 -0.112327
  2 S  1.31600000E+00  0.562814

  3 S  3.89700000E-01  1.000000

  4 P  2.26700000E+01  0.044878
  4 P  4.97700000E+00  0.235718
  4 P  1.34700000E+00  0.508521

  5 P  3.47100000E-01  1.000000

  6 D  1.64000000E+00  1.000000



    Basis function labels
    ---------------------
       No.  Atm El Type
       ---  --- -- ----
        1    1 H  s          
        2    1 H  s          
        3    1 H  px         
        4    1 H  py         
        5    1 H  pz         
        6    2 F  s          
        7    2 F  s          
        8    2 F  s          
        9    2 F  px         
       10    2 F  py         
       11    2 F  pz         
       12    2 F  px         
       13    2 F  py         
       14    2 F  pz         
       15    2 F  d -2       
       16    2 F  d -1       
       17    2 F  d  0       
       18    2 F  d  1       
       19    2 F  d  2       

 Schwarz integral screening summary 
 ---------------------------------- 

        No. of atom pairs =       3
       No. of shell pairs =      45

 Atomic screening 

   value      no.     value      no.     value      no.     value      no.   
  -------- ------    -------- ------    -------- ------    -------- ------   
  0.00D+00      0    1.00D-13      0    1.00D-12      0    1.00D-11      0
  1.00D-10      0    1.00D-09      0    1.00D-08      0    1.00D-07      0
  1.00D-06      0    1.00D-05      0    1.00D-04      0    1.00D-03      0
  1.00D-02      0    1.00D-01      1    1.00D+00      2    1.00D+01      0


 Shell screening 

   value      no.     value      no.     value      no.     value      no.   
  -------- ------    -------- ------    -------- ------    -------- ------   
  0.00D+00      0    1.00D-13      0    1.00D-12      0    1.00D-11      0
  1.00D-10      0    1.00D-09      0    1.00D-08      0    1.00D-07      0
  1.00D-06      1    1.00D-05      1    1.00D-04      1    1.00D-03      5
  1.00D-02      7    1.00D-01      6    1.00D+00     24    1.00D+01      0



 Forming initial guess at       0.1s


      Superposition of Atomic Density Guess
      -------------------------------------

 Sum of atomic energies:         -99.88314519

      Non-variational initial energy
      ------------------------------

 Total energy =     -99.370416
 1-e energy   =    -143.563845
 2-e energy   =      42.304409
 HOMO         =      -0.577898
 LUMO         =      -0.191067


 Setting fock-build task_bf   :      -1
                    maxquartet:   10000
                    maxeri    :  129600
                    maxscr    :       0
                    intacc    : 0.0D+00
                    denscreen : T
                    dentol    : 1.0D-06


 Wrote molecular orbitals to ./tce_hf_2.5212.movecs


 Starting SCF solution at       0.1s

 ready to solve ...                    0


 ----------------------------------------------
         Quadratically convergent ROHF

 Convergence threshold     :          1.000E-10
 Maximum no. of iterations :           30
 Final Fock-matrix accuracy:          1.000E-10
 ----------------------------------------------

   0: nuse=   1(   1.0) avail=   434978Mb (out of   434978Mb) on .

 #quartets = 1.033D+03 #integrals = 4.809D+03 #direct =  0.0% #cached =100.0%


 Integral file          = ./tce_hf_2.5212.aoints.0
 Record size in doubles =  65536        No. of integs per rec  =  43688
 Max. records in memory =      2        Max. records in file   = 826457
 No. of bits per label  =      8        No. of bits per value  =     64


 Wrote rohf: cfock to ./tce_hf_2.5212.cfock


              iter       energy          gnorm     gmax       time
             ----- ------------------- --------- --------- --------
                 1      -99.5235630955  1.32D+00  5.84D-01      0.2

            ----- linear solve (tol: 1.0E-02 prod-acc: 1.6E-08) -----

               iter nbas    rnorm     rnorm-scal   ratio     time
               ---- ---- ----------- ----------- --------- -------
 rohf_wrap: in g_x =    1              1.32163508
 rohf_wrap: out g_x =    1              0.10694284
                  1    1  4.5359E-16  3.4321E-16    0.0000     0.2

                              ----- Line search ------

        step       energy         lsg     num-lsg   num-lsh   lsrat    time
      ------- ---------------- --------- --------- --------- ------- --------
       0.0000     -99.52356310 -1.34D-01  0.00D+00  0.00D+00 0.0D+00      0.2

 Wrote rohf: cfock to ./tce_hf_2.5212.cfock

       1.0000     -99.59641697 -1.08D-02 -1.14D-02  1.23D-01 8.1D-02      0.2

              iter       energy          gnorm     gmax       time
             ----- ------------------- --------- --------- --------
                 2      -99.5964169669  2.29D-01  1.97D-01      0.2

            ----- linear solve (tol: 1.0E-02 prod-acc: 2.7E-09) -----

               iter nbas    rnorm     rnorm-scal   ratio     time
               ---- ---- ----------- ----------- --------- -------
 rohf_wrap: in g_x =    1              0.22928243
 rohf_wrap: out g_x =    1              1.20562528
                  1    1  2.5891E-02  1.1292E-01    0.0000     0.2
 rohf_wrap: in g_x =    1              0.02589120
 rohf_wrap: out g_x =    1              0.01628038
                  2    2  5.0216E-04  2.1902E-03    0.0194     0.2

                              ----- Line search ------

        step       energy         lsg     num-lsg   num-lsh   lsrat    time
      ------- ---------------- --------- --------- --------- ------- --------
       0.0000     -99.59641697 -2.59D-01  0.00D+00  0.00D+00 0.0D+00      0.2

 Wrote rohf: cfock to ./tce_hf_2.5212.cfock

       1.0000     -98.50656010  1.33D+00  1.88D+00  1.59D+00 5.1D+00      0.2
                    Energy increase :             1.08985686 backtrack

 Wrote rohf: cfock to ./tce_hf_2.5212.cfock

       0.6667     -99.14116410  2.02D+00  2.25D+00 -2.09D+00 7.8D+00      0.2
                    Energy increase :             0.45525286 backtrack

 Wrote rohf: cfock to ./tce_hf_2.5212.cfock

       0.4444     -99.50309321  1.12D+00  1.18D+00  4.05D+00 4.3D+00      0.2
                    Energy increase :             0.09332376 backtrack

 Wrote rohf: cfock to ./tce_hf_2.5212.cfock

       0.2963     -99.61315782  3.83D-01  3.74D-01  4.98D+00 1.5D+00      0.2

 Wrote rohf: cfock to ./tce_hf_2.5212.cfock

       0.2194     -99.63048185  8.08D-02  7.39D-02  3.93D+00 3.1D-01      0.2

 Wrote rohf: cfock to ./tce_hf_2.5212.cfock

       0.1988     -99.63145263  1.49D-02  1.43D-02  3.21D+00 5.7D-02      0.2

              iter       energy          gnorm     gmax       time
             ----- ------------------- --------- --------- --------
                 3      -99.6314526288  8.49D-01  4.48D-01      0.2

            ----- linear solve (tol: 1.0E-02 prod-acc: 1.0E-08) -----

               iter nbas    rnorm     rnorm-scal   ratio     time
               ---- ---- ----------- ----------- --------- -------
 rohf_wrap: in g_x =    1              0.84875541
 rohf_wrap: out g_x =    1              0.13751917
                  1    1  1.6062E-02  1.8924E-02    0.0000     0.2
 rohf_wrap: in g_x =    1              0.01606203
 rohf_wrap: out g_x =    1              0.00406979
                  2    2  4.4729E-04  5.2700E-04    0.0278     0.2

                              ----- Line search ------

        step       energy         lsg     num-lsg   num-lsh   lsrat    time
      ------- ---------------- --------- --------- --------- ------- --------
       0.0000     -99.63145263 -8.48D-02  0.00D+00  0.00D+00 0.0D+00      0.2

 Wrote rohf: cfock to ./tce_hf_2.5212.cfock

       1.0000     -99.67368870 -5.67D-04 -1.13D-04  8.42D-02 6.7D-03      0.2

              iter       energy          gnorm     gmax       time
             ----- ------------------- --------- --------- --------
                 4      -99.6736886970  2.68D-01  1.63D-01      0.2

            ----- linear solve (tol: 1.0E-02 prod-acc: 3.2E-09) -----

               iter nbas    rnorm     rnorm-scal   ratio     time
               ---- ---- ----------- ----------- --------- -------
 rohf_wrap: in g_x =    1              0.26824608
 rohf_wrap: out g_x =    1              0.18388537
                  1    1  3.0907E-02  1.1522E-01    0.0000     0.2
 rohf_wrap: in g_x =    1              0.03090682
 rohf_wrap: out g_x =    1              0.00824768
                  2    2  1.2713E-03  4.7394E-03    0.0411     0.2

                              ----- Line search ------

        step       energy         lsg     num-lsg   num-lsh   lsrat    time
      ------- ---------------- --------- --------- --------- ------- --------
       0.0000     -99.67368870 -3.64D-02  0.00D+00  0.00D+00 0.0D+00      0.2

 Wrote rohf: cfock to ./tce_hf_2.5212.cfock

       1.0000     -99.67162159  4.72D-02  4.39D-02  8.37D-02 1.3D+00      0.2

 Wrote rohf: cfock to ./tce_hf_2.5212.cfock

       0.4356     -99.68311979 -5.08D-03 -5.77D-03  9.27D-02 1.4D-01      0.2

              iter       energy          gnorm     gmax       time
             ----- ------------------- --------- --------- --------
                 5      -99.6831197929  1.26D-01  1.03D-01      0.2

            ----- linear solve (tol: 1.0E-02 prod-acc: 1.5E-09) -----

               iter nbas    rnorm     rnorm-scal   ratio     time
               ---- ---- ----------- ----------- --------- -------
 rohf_wrap: in g_x =    1              0.12612590
 rohf_wrap: out g_x =    1              0.02152609
                  1    1  5.9837E-03  4.7443E-02    0.0000     0.2
 rohf_wrap: in g_x =    1              0.00598374
 rohf_wrap: out g_x =    1              0.00250100
                  2    2  4.2007E-04  3.3306E-03    0.0702     0.2

                              ----- Line search ------

        step       energy         lsg     num-lsg   num-lsh   lsrat    time
      ------- ---------------- --------- --------- --------- ------- --------
       0.0000     -99.68311979 -2.24D-03  0.00D+00  0.00D+00 0.0D+00      0.2

 Wrote rohf: cfock to ./tce_hf_2.5212.cfock

       1.0000     -99.68418586  1.11D-04  1.11D-04  2.35D-03 4.9D-02      0.2

              iter       energy          gnorm     gmax       time
             ----- ------------------- --------- --------- --------
                 6      -99.6841858631  8.31D-02  5.04D-02      0.2

            ----- linear solve (tol: 8.3E-02 prod-acc: 8.3E-09) -----

               iter nbas    rnorm     rnorm-scal   ratio     time
               ---- ---- ----------- ----------- --------- -------
 rohf_wrap: in g_x =    1              0.08310033
 rohf_wrap: out g_x =    1              0.02057016
                  1    1  2.3960E-02  2.8833E-01    0.0000     0.2
 rohf_wrap: in g_x =    1              0.02396032
 rohf_wrap: out g_x =    1              0.00867057
                  2    2  1.7163E-03  2.0653E-02    0.0716     0.2

                              ----- Line search ------

        step       energy         lsg     num-lsg   num-lsh   lsrat    time
      ------- ---------------- --------- --------- --------- ------- --------
       0.0000     -99.68418586 -6.97D-04  0.00D+00  0.00D+00 0.0D+00      0.2

 Wrote rohf: cfock to ./tce_hf_2.5212.cfock

       1.0000     -99.68453474 -8.69D-07 -5.95D-07  6.97D-04 1.2D-03      0.2

              iter       energy          gnorm     gmax       time
             ----- ------------------- --------- --------- --------
                 7      -99.6845347440  1.69D-03  8.34D-04      0.2

            ----- linear solve (tol: 1.7E-03 prod-acc: 3.4E-12) -----

               iter nbas    rnorm     rnorm-scal   ratio     time
               ---- ---- ----------- ----------- --------- -------
 rohf_wrap: in g_x =    1              0.00169081
 rohf_wrap: out g_x =    1              0.00059847
                  1    1  1.0939E-03  6.4699E-01    0.0000     0.2
 rohf_wrap: in g_x =    1              0.00109393
 rohf_wrap: out g_x =    1              0.00011927
                  2    2  2.0113E-04  1.1896E-01    0.1839     0.2
 rohf_wrap: in g_x =    1              0.00020113
 rohf_wrap: out g_x =    1              0.00009371
                  3    3  5.4263E-05  3.2093E-02    0.2698     0.2
 rohf_wrap: in g_x =    1              0.00005426
 rohf_wrap: out g_x =    1              0.00000827
                  4    4  2.9683E-06  1.7555E-03    0.0547     0.2
 rohf_wrap: in g_x =    1              0.00000297
 rohf_wrap: out g_x =    1              0.00000110
                  5    5  2.9295E-07  1.7326E-04    0.0987     0.2

                              ----- Line search ------

        step       energy         lsg     num-lsg   num-lsh   lsrat    time
      ------- ---------------- --------- --------- --------- ------- --------
       0.0000     -99.68453474 -5.24D-07  0.00D+00  0.00D+00 0.0D+00      0.2

 Wrote rohf: cfock to ./tce_hf_2.5212.cfock

       1.0000     -99.68453501  2.25D-10  1.96D-10  5.24D-07 4.3D-04      0.2

              iter       energy          gnorm     gmax       time
             ----- ------------------- --------- --------- --------
                 8      -99.6845350058  6.21D-07  5.04D-07      0.2

            ----- linear solve (tol: 1.6E-05 prod-acc: 1.2E-17) -----

               iter nbas    rnorm     rnorm-scal   ratio     time
               ---- ---- ----------- ----------- --------- -------
 rohf_wrap: in g_x =    1              0.00000062
 rohf_wrap: out g_x =    1              0.00000046
                  1    1  3.6235E-07  5.8325E-01    0.0000     0.2
 rohf_wrap: in g_x =    1              0.00000036
 rohf_wrap: out g_x =    1              0.00000021
                  2    2  8.7568E-08  1.4095E-01    0.2417     0.2
 rohf_wrap: in g_x =    1              0.00000009
 rohf_wrap: out g_x =    1              0.00000003
                  3    3  1.5707E-08  2.5283E-02    0.1794     0.2
 rohf_wrap: in g_x =    1              0.00000002
 rohf_wrap: out g_x =    1              0.00000000
                  4    4  1.9857E-09  3.1962E-03    0.1264     0.3
 rohf_wrap: in g_x =    1              0.00000000
 rohf_wrap: out g_x =    1              0.00000000
                  5    5  3.2168E-10  5.1778E-04    0.1620     0.3
 rohf_wrap: in g_x =    1              0.00000000
 rohf_wrap: out g_x =    1              0.00000000
                  6    6  2.2386E-11  3.6033E-05    0.0696     0.3
 rohf_wrap: in g_x =    1              0.00000000
 rohf_wrap: out g_x =    1              0.00000000
                  7    7  9.1388E-13  1.4710E-06    0.0408     0.3

                              ----- Line search ------

        step       energy         lsg     num-lsg   num-lsh   lsrat    time
      ------- ---------------- --------- --------- --------- ------- --------
       0.0000     -99.68453501 -1.53D-13  0.00D+00  0.00D+00 0.0D+00      0.3

 Wrote rohf: cfock to ./tce_hf_2.5212.cfock

       1.0000     -99.68453501 -4.27D-20 -1.37D-13  1.53D-13 2.8D-07      0.3

              iter       energy          gnorm     gmax       time
             ----- ------------------- --------- --------- --------
                 9      -99.6845350058  1.04D-12  5.46D-13      0.3

 Wrote molecular orbitals to ./tce_hf_2.5212.movecs



       Final RHF  results 
       ------------------ 

         Total SCF energy =    -99.684535005792
      One-electron energy =   -144.623446790802
      Two-electron energy =     43.049892571541
 Nuclear repulsion energy =      1.889019213469

        Time for solution =      0.2s


             Final eigenvalues
             -----------------

              1      
    1  -26.2556
    2   -1.4463
    3   -0.5673
    4   -0.5673
    5   -0.4254
    6   -0.1525
    7    0.5539
    8    1.3098
    9    1.3428
   10    1.3428
   11    1.5012
   12    1.5012
   13    1.5942
   14    1.8866
   15    4.0535
   16    4.0561
   17    4.0561
   18    4.0675
   19    4.0675

                       ROHF Final Molecular Orbital Analysis
                       -------------------------------------

 Vector    1  Occ=2.000000D+00  E=-2.625557D+01
              MO Center= -5.0D-18, -4.0D-18, -2.5D-01, r^2= 1.2D-02
   Bfn.  Coefficient  Atom+Function         Bfn.  Coefficient  Atom+Function  
  ----- ------------  ---------------      ----- ------------  ---------------
     6      1.000402  2 F  s          

 Vector    2  Occ=2.000000D+00  E=-1.446278D+00
              MO Center=  2.3D-16,  2.0D-16, -2.5D-01, r^2= 3.5D-01
   Bfn.  Coefficient  Atom+Function         Bfn.  Coefficient  Atom+Function  
  ----- ------------  ---------------      ----- ------------  ---------------
     8      0.580350  2 F  s                  7      0.500579  2 F  s          

 Vector    3  Occ=2.000000D+00  E=-5.672861D-01
              MO Center= -1.3D-17, -2.9D-16, -2.5D-01, r^2= 4.3D-01
   Bfn.  Coefficient  Atom+Function         Bfn.  Coefficient  Atom+Function  
  ----- ------------  ---------------      ----- ------------  ---------------
     9      0.673662  2 F  px                12      0.478665  2 F  px         

 Vector    4  Occ=2.000000D+00  E=-5.672861D-01
              MO Center= -2.0D-16,  1.7D-16, -2.5D-01, r^2= 4.3D-01
   Bfn.  Coefficient  Atom+Function         Bfn.  Coefficient  Atom+Function  
  ----- ------------  ---------------      ----- ------------  ---------------
    10      0.673662  2 F  py                13      0.478665  2 F  py         

 Vector    5  Occ=2.000000D+00  E=-4.254139D-01
              MO Center= -2.4D-14, -1.9D-14,  5.5D-01, r^2= 2.0D+00
   Bfn.  Coefficient  Atom+Function         Bfn.  Coefficient  Atom+Function  
  ----- ------------  ---------------      ----- ------------  ---------------
    11      0.505090  2 F  pz                14      0.419042  2 F  pz         
     2      0.343726  1 H  s                  1      0.253384  1 H  s          

 Vector    6  Occ=0.000000D+00  E=-1.525038D-01
              MO Center= -5.7D-16, -4.6D-16,  1.5D+00, r^2= 2.3D+00
   Bfn.  Coefficient  Atom+Function         Bfn.  Coefficient  Atom+Function  
  ----- ------------  ---------------      ----- ------------  ---------------
     2      0.494072  1 H  s                  1      0.421054  1 H  s          
    11     -0.370733  2 F  pz                14     -0.325428  2 F  pz         

 Vector    7  Occ=0.000000D+00  E= 5.539147D-01
              MO Center=  1.3D-17,  1.6D-17,  2.3D+00, r^2= 1.8D+00
   Bfn.  Coefficient  Atom+Function         Bfn.  Coefficient  Atom+Function  
  ----- ------------  ---------------      ----- ------------  ---------------
     1      1.286079  1 H  s                  2     -1.250050  1 H  s          

 Vector    8  Occ=0.000000D+00  E= 1.309813D+00
              MO Center=  1.6D-16,  7.6D-17,  1.9D+00, r^2= 1.2D+00
   Bfn.  Coefficient  Atom+Function         Bfn.  Coefficient  Atom+Function  
  ----- ------------  ---------------      ----- ------------  ---------------
     5      0.916118  1 H  pz                11      0.371539  2 F  pz         
    14     -0.352067  2 F  pz         

 Vector    9  Occ=0.000000D+00  E= 1.342805D+00
              MO Center= -2.4D-16,  3.1D-16,  2.3D+00, r^2= 5.3D-01
   Bfn.  Coefficient  Atom+Function         Bfn.  Coefficient  Atom+Function  
  ----- ------------  ---------------      ----- ------------  ---------------
     4      0.788731  1 H  py                 3     -0.608799  1 H  px         

 Vector   10  Occ=0.000000D+00  E= 1.342805D+00
              MO Center=  2.5D-14,  1.9D-14,  2.3D+00, r^2= 5.3D-01
   Bfn.  Coefficient  Atom+Function         Bfn.  Coefficient  Atom+Function  
  ----- ------------  ---------------      ----- ------------  ---------------
     3      0.788731  1 H  px                 4      0.608799  1 H  py         

 Vector   11  Occ=0.000000D+00  E= 1.501217D+00
              MO Center=  1.5D-15,  2.8D-16, -2.3D-01, r^2= 9.4D-01
   Bfn.  Coefficient  Atom+Function         Bfn.  Coefficient  Atom+Function  
  ----- ------------  ---------------      ----- ------------  ---------------
    12      1.022167  2 F  px                 9     -0.909990  2 F  px         
    13      0.188679  2 F  py                10     -0.167972  2 F  py         

 Vector   12  Occ=0.000000D+00  E= 1.501217D+00
              MO Center=  1.3D-17, -6.4D-17, -2.3D-01, r^2= 9.4D-01
   Bfn.  Coefficient  Atom+Function         Bfn.  Coefficient  Atom+Function  
  ----- ------------  ---------------      ----- ------------  ---------------
    13      1.022167  2 F  py                10     -0.909990  2 F  py         
    12     -0.188679  2 F  px                 9      0.167972  2 F  px         

 Vector   13  Occ=0.000000D+00  E= 1.594186D+00
              MO Center=  4.0D-16,  1.7D-16, -2.8D-02, r^2= 1.7D+00
   Bfn.  Coefficient  Atom+Function         Bfn.  Coefficient  Atom+Function  
  ----- ------------  ---------------      ----- ------------  ---------------
    14      0.974922  2 F  pz                11     -0.883215  2 F  pz         
     5      0.386303  1 H  pz                 2     -0.183948  1 H  s          
     7      0.183269  2 F  s                  8     -0.164493  2 F  s          

 Vector   14  Occ=0.000000D+00  E= 1.886578D+00
              MO Center= -2.1D-15, -5.8D-16, -1.1D-01, r^2= 8.9D-01
   Bfn.  Coefficient  Atom+Function         Bfn.  Coefficient  Atom+Function  
  ----- ------------  ---------------      ----- ------------  ---------------
     7      1.547514  2 F  s                  8     -1.528808  2 F  s          
     6      0.625457  2 F  s                  2      0.197829  1 H  s          

 Vector   15  Occ=0.000000D+00  E= 4.053490D+00
              MO Center= -9.0D-18,  2.5D-17, -2.5D-01, r^2= 3.0D-01
   Bfn.  Coefficient  Atom+Function         Bfn.  Coefficient  Atom+Function  
  ----- ------------  ---------------      ----- ------------  ---------------
    17      1.000095  2 F  d  0       

 Vector   16  Occ=0.000000D+00  E= 4.056126D+00
              MO Center= -1.2D-16,  2.5D-17, -2.5D-01, r^2= 3.0D-01
   Bfn.  Coefficient  Atom+Function         Bfn.  Coefficient  Atom+Function  
  ----- ------------  ---------------      ----- ------------  ---------------
    18      0.942463  2 F  d  1              16      0.334306  2 F  d -1       

 Vector   17  Occ=0.000000D+00  E= 4.056126D+00
              MO Center=  1.6D-16,  2.6D-17, -2.5D-01, r^2= 3.0D-01
   Bfn.  Coefficient  Atom+Function         Bfn.  Coefficient  Atom+Function  
  ----- ------------  ---------------      ----- ------------  ---------------
    16      0.942463  2 F  d -1              18     -0.334306  2 F  d  1       

 Vector   18  Occ=0.000000D+00  E= 4.067546D+00
              MO Center= -2.0D-16, -3.8D-16, -2.5D-01, r^2= 3.0D-01
   Bfn.  Coefficient  Atom+Function         Bfn.  Coefficient  Atom+Function  
  ----- ------------  ---------------      ----- ------------  ---------------
    19      0.993033  2 F  d  2       

 Vector   19  Occ=0.000000D+00  E= 4.067546D+00
              MO Center=  4.4D-17,  2.3D-16, -2.5D-01, r^2= 3.0D-01
   Bfn.  Coefficient  Atom+Function         Bfn.  Coefficient  Atom+Function  
  ----- ------------  ---------------      ----- ------------  ---------------
    15      0.993033  2 F  d -2       


 center of mass
 --------------
 x =   0.00000000 y =   0.00000000 z =  -0.23642950

 moments of inertia (a.u.)
 ------------------
          21.724474208005           0.000000000000           0.000000000000
           0.000000000000          21.724474208005           0.000000000000
           0.000000000000           0.000000000000           0.000000000000

  Mulliken analysis of the total density
  --------------------------------------

   Bfn.    Population  Atom+Function
   ---------------------------------
     1      0.254639    1 H  s          
     2      0.409344    1 H  s          
     3      0.000014    1 H  px         
     4      0.000014    1 H  py         
     5      0.000927    1 H  pz         
     6      2.000778    2 F  s          
     7      0.914141    2 F  s          
     8      1.083428    2 F  s          
     9      1.224870    2 F  px         
    10      1.224870    2 F  py         
    11      0.726263    2 F  pz         
    12      0.775111    2 F  px         
    13      0.775111    2 F  py         
    14      0.610415    2 F  pz         
    15      0.000000    2 F  d -2       
    16      0.000005    2 F  d -1       
    17      0.000065    2 F  d  0       
    18      0.000005    2 F  d  1       
    19      0.000000    2 F  d  2       

    Atom       Charge   Shell Charges
 -----------   ------   -------------------------------------------------------
    1 H    1     0.66   0.25  0.41  0.00
    2 F    9     9.34   2.00  0.91  1.08  3.18  2.16  0.00

       Multipole analysis of the density wrt the origin
       ------------------------------------------------

     L   x y z        total         open         nuclear
     -   - - -        -----         ----         -------
     0   0 0 0     -0.000000      0.000000     10.000000

     1   1 0 0      0.000000      0.000000      0.000000
     1   0 1 0      0.000000      0.000000      0.000000
     1   0 0 1      1.708034      0.000000      0.000000

     2   2 0 0     -4.599841      0.000000      0.000000
     2   1 1 0      0.000000      0.000000      0.000000
     2   1 0 1      0.000000      0.000000      0.000000
     2   0 2 0     -4.599841      0.000000      0.000000
     2   0 1 1      0.000000      0.000000      0.000000
     2   0 0 2      2.862309      0.000000     20.429361


 Wrote molecular orbitals to ./tce_hf_2.5212.movecs


 Parallel integral file used       1 records with       0 large values


 Read molecular orbitals from ./tce_hf_2.5212.movecs


 Schwarz integral screening summary 
 ---------------------------------- 

        No. of atom pairs =       3
       No. of shell pairs =      45

 Atomic screening 

   value      no.     value      no.     value      no.     value      no.   
  -------- ------    -------- ------    -------- ------    -------- ------   
  0.00D+00      0    1.00D-13      0    1.00D-12      0    1.00D-11      0
  1.00D-10      0    1.00D-09      0    1.00D-08      0    1.00D-07      0
  1.00D-06      0    1.00D-05      0    1.00D-04      0    1.00D-03      0
  1.00D-02      0    1.00D-01      1    1.00D+00      2    1.00D+01      0


 Shell screening 

   value      no.     value      no.     value      no.     value      no.   
  -------- ------    -------- ------    -------- ------    -------- ------   
  0.00D+00      0    1.00D-13      0    1.00D-12      0    1.00D-11      0
  1.00D-10      0    1.00D-09      0    1.00D-08      0    1.00D-07      0
  1.00D-06      1    1.00D-05      1    1.00D-04      1    1.00D-03      5
  1.00D-02      7    1.00D-01      6    1.00D+00     24    1.00D+01      0


                   NWChem Extensible Many-Electron Theory Module
                   ---------------------------------------------

              ======================================================
                   This portion of the program was automatically
                  generated by a Tensor Contraction Engine (TCE).
                  The development of this portion of the program
                 and TCE was supported by US Department of Energy,
                Office of Science, Office of Basic Energy Science.
                      TCE is a product of Battelle and PNNL.
              Please cite: S.Hirata, J.Phys.Chem.A 107, 9887 (2003).
              ======================================================

            General Information
            -------------------
      Number of processors :     1
         Wavefunction type : Restricted Hartree-Fock
          No. of electrons :    10
           Alpha electrons :     5
            Beta electrons :     5
           No. of orbitals :    38
            Alpha orbitals :    19
             Beta orbitals :    19
        Alpha frozen cores :     0
         Beta frozen cores :     0
     Alpha frozen virtuals :     0
      Beta frozen virtuals :     0
         Spin multiplicity : singlet 
    Number of AO functions :    19
       Number of AO shells :     9
        Use of symmetry is : off
      Symmetry adaption is : off
         Schwarz screening : 0.10D-09

          Correlation Information
          -----------------------
          Calculation type : Coupled-cluster singles & doubles                           
   Perturbative correction : none                                                        
            Max iterations :      100
        Residual threshold : 0.10D-07
     T(0) DIIS level shift : 0.00D+00
     L(0) DIIS level shift : 0.00D+00
     T(1) DIIS level shift : 0.00D+00
     L(1) DIIS level shift : 0.00D+00
     T(R) DIIS level shift : 0.00D+00
     T(I) DIIS level shift : 0.00D+00
   CC-T/L Amplitude update :  5-th order DIIS
                I/O scheme : Global Array Library
        L-threshold :  0.10D-07
        EOM-threshold :  0.10D-07
 no EOMCCSD initial starts read in
 TCE RESTART OPTIONS
 READ_INT:   F
 WRITE_INT:  F
 READ_TA:    F
 WRITE_TA:   F
 READ_XA:    F
 WRITE_XA:   F
 READ_IN3:   F
 WRITE_IN3:  F
 SLICE:      F
 D4D5:       F
 quantumc:   F
 qrotation:  F
 qducc:      T
 nacto:                         0
 nrotv:                         0
 nrot:                          0

            Memory Information
            ------------------
          Available GA space size is     402652823 doubles
          Available MA space size is     402651564 doubles

 Maximum block size        32 doubles

 tile_dim =     14

 Block   Spin    Irrep     Size     Offset   Alpha
 -------------------------------------------------
   1    alpha     a      5 doubles       0       1
   2    beta      a      5 doubles       5       1
   3    alpha     a     14 doubles      10       3
   4    beta      a     14 doubles      24       3

 Global array virtual files algorithm will be used

 Parallel file system coherency ......... OK

 Setting fock-build task_bf   :      -1
                    maxquartet:   10000
                    maxeri    :  129600
                    maxscr    :       0
                    intacc    : 0.0D+00
                    denscreen : T
                    dentol    : 1.0D-06

   0: nuse=   1(   0.9) avail=   434977Mb (out of   434977Mb) on .

 #quartets = 1.033D+03 #integrals = 4.809D+03 #direct =  0.0% #cached =100.0%


 Integral file          = ./tce_hf_2.5212.aoints.0
 Record size in doubles =  65536        No. of integs per rec  =  43688
 Max. records in memory =      2        Max. records in file   = 826455
 No. of bits per label  =      8        No. of bits per value  =     64


 Fock matrix recomputed
 1-e file size   =              361
 1-e file name   = ./tce_hf_2.5212.f1
 Cpu & wall time / sec            0.0            0.0
 4-electron integrals stored in orbital form

 v2    file size   =            64311
 4-index algorithm nr.  13 is used
 imaxsize =       30
 imaxsize ichop =        0
 Cpu & wall time / sec            0.1            0.1
 T1-number-of-tasks                    1

 t1 file size   =               70
 t1 file name   = ./tce_hf_2.5212.t1
 t1 file handle =       -998
 T2-number-of-boxes                    2

 t2 file size   =             9800
 t2 file name   = ./tce_hf_2.5212.t2
 t2 file handle =       -996

 CCSD iterations
 -----------------------------------------------------------------
 Iter          Residuum       Correlation     Cpu    Wall    V2*C2
 -----------------------------------------------------------------
    1   0.2560434844765  -0.2837259882560     0.0     0.0     0.0
    2   0.1487350076401  -0.3111114511145     0.0     0.0     0.0
    3   0.2067001532068  -0.2832225245447     0.0     0.0     0.0
    4   0.2606561731335  -0.3475736210841     0.0     0.0     0.0
    5   0.3613213057191  -0.2518598761979     0.0     0.0     0.0
 MICROCYCLE DIIS UPDATE:                    5                    5
    6   0.0245441862906  -0.3181015414424     0.0     0.0     0.0
    7   0.0141586241130  -0.3271153299726     0.0     0.0     0.0
    8   0.0170168643796  -0.3241572322838     0.0     0.0     0.0
    9   0.0190490692201  -0.3303978355496     0.0     0.0     0.0
   10   0.0289147384214  -0.3236506411255     0.0     0.0     0.0
 MICROCYCLE DIIS UPDATE:                   10                    5
   11   0.0003388429544  -0.3283196783253     0.0     0.0     0.0
   12   0.0001474023748  -0.3284064879962     0.0     0.0     0.0
   13   0.0002255019880  -0.3283557976392     0.0     0.0     0.0
   14   0.0002828731816  -0.3284380978939     0.0     0.0     0.0
   15   0.0004257172073  -0.3283360452559     0.0     0.0     0.0
 MICROCYCLE DIIS UPDATE:                   15                    5
   16   0.0000076554228  -0.3283991896605     0.0     0.0     0.0
   17   0.0000038765301  -0.3284001401482     0.0     0.0     0.0
   18   0.0000020471724  -0.3284005950754     0.0     0.0     0.0
   19   0.0000022579999  -0.3284003738542     0.0     0.0     0.0
   20   0.0000026001962  -0.3284010872111     0.0     0.0     0.0
 MICROCYCLE DIIS UPDATE:                   20                    5
   21   0.0000002119191  -0.3284007507755     0.0     0.0     0.0
   22   0.0000001092869  -0.3284007769940     0.0     0.0     0.0
   23   0.0000000570374  -0.3284007904002     0.0     0.0     0.0
   24   0.0000000838586  -0.3284007792719     0.0     0.0     0.0
   25   0.0000001019376  -0.3284008058797     0.0     0.0     0.0
 MICROCYCLE DIIS UPDATE:                   25                    5
   26   0.0000000058798  -0.3284007922238     0.0     0.0     0.0
 -----------------------------------------------------------------
 Iterations converged
 CCSD correlation energy / hartree =        -0.328400792223836
 CCSD total energy / hartree       =      -100.012935798015718

 Singles contributions
     6a   (alpha) ---     5a   (alpha)        0.2402200553

 Doubles contributions
     6a   (alpha)     6a   (beta ) ---     5a   (alpha)     5a   (beta )       -0.7202550189
 Ground state specification:
 exp(T)|Ref>~(1+T)|Ref>
 ------- a(p)+/a(q) strings ----------

 singles norm

 doubles norm

 Reference string
  0.78225839914567430      :(1a)+ (2a)+ (3a)+ (4a)+ (5a)+ (1b)+ (2b)+ (3b)+ (4b)+ (5b)+ |0>

 Singles strings
  0.18791415591672325      :(6a)+ (5a)  (1a)+ (2a)+ (3a)+ (4a)+ (5a)+ (1b)+ (2b)+ (3b)+ (4b)+ (5b)+ |0>
  0.18791415591672325      :(6b)+ (5b)  (1a)+ (2a)+ (3a)+ (4a)+ (5a)+ (1b)+ (2b)+ (3b)+ (4b)+ (5b)+ |0>

 Doubles strings
 -0.56342553809554796      :(6a)+ (6b)+ (5b)  (5a)  (1a)+ (2a)+ (3a)+ (4a)+ (5a)+ (1b)+ (2b)+ (3b)+ (4b)+ (5b)+ |0>
 -------------------------------------
 enrep_tce =    1.8890192134686989     
  EHF(total)         =       -99.68453501
  Shift (HFtot-HFA)  =         0.00000000
 ALL OCCUPIED ORBITALS ARE ACTIVE IN DUCC --> NO SHIFT
 Number of active orbitals                   10
 Number of active alpha electrons                    5
 Number of active beta electrons                    5
  nos                    10
  nvs                    28
 noas                     5
 nobs                     5
 nvas                    14
 nvbs                    14
 nactv                     5
 From DUCC CCSD corr. ene. -0.32840079222384971     
 From DUCC CCSD corr. ene.-e-part  0.17849204427016299     
 begin_one_electron_integrals
    1    1       -40.6272261580
    1    2         0.7598595689
    1    5        -0.0210945226
    1    6        -0.0253020796
    1    7         0.0501104495
    1    8         0.0427604191
    2    1         0.7598595689
    2    2        -9.1455837404
    2    5         0.1149192335
    2    6         0.1711579903
    2    7        -0.1993792073
    2    8        -0.1431060663
    3    3        -8.2670355976
    3    9        -0.1137930098
    3   10         0.1564441481
    4    4        -8.2670355976
    4    9         0.1564441481
    4   10         0.1137930098
    5    1        -0.0210945226
    5    2         0.1149192335
    5    5        -6.2755978856
    5    6         2.4763564514
    5    7        -0.3354312146
    5    8        -0.7206123203
    6    1        -0.0253020796
    6    2         0.1711579903
    6    5         2.4763564514
    6    6        -4.2195614908
    6    7         0.1576943085
    6    8         0.9397084214
    7    1         0.0501104495
    7    2        -0.1993792073
    7    5        -0.3354312146
    7    6         0.1576943085
    7    7        -1.6977369421
    7    8        -0.1971306867
    8    1         0.0427604191
    8    2        -0.1431060663
    8    5        -0.7206123203
    8    6         0.9397084214
    8    7        -0.1971306867
    8    8        -1.8424071881
    9    3        -0.1137930098
    9    4         0.1564441481
    9    9        -0.9851511867
   10    3         0.1564441481
   10    4         0.1137930098
   10   10        -0.9851511867
 end_one_electron_integrals
 begin_two_electron_integrals
    1    1    1    1        5.3568384809
    2    1    1    1       -0.5447970236
    2    2    1    1        1.2926581104
    2    1    2    1        0.0877869451
    2    2    2    1       -0.0252304158
    2    2    2    2        0.9005085182
    3    3    1    1        1.2451201277
    3    3    2    1       -0.0169460767
    3    3    2    2        0.8723219163
    3    1    3    1        0.0378328354
    3    2    3    1        0.0409627124
    3    2    3    2        0.1699266235
    3    3    3    3        0.8988816834
    4    4    1    1        1.2451201277
    4    4    2    1       -0.0169460767
    4    4    2    2        0.8723219163
    4    4    3    3        0.8155622691
    4    1    4    1        0.0378328354
    4    2    4    1        0.0409627124
    4    2    4    2        0.1699266235
    4    3    4    3        0.0394288986
    4    4    4    4        0.8988816834
    5    1    1    1        0.0165897570
    5    2    1    1       -0.0264879459
    5    5    1    1        0.8837642482
    5    1    2    1       -0.0027698684
    5    1    2    2        0.0007484935
    5    2    2    1        0.0008229122
    5    2    2    2       -0.0144937209
    5    5    2    1       -0.0105038382
    5    5    2    2        0.6465452501
    5    1    3    3        0.0004965759
    5    2    3    3       -0.0141459650
    5    3    3    1       -0.0011384993
    5    3    3    2       -0.0038965294
    5    5    3    3        0.6060346425
    5    1    4    4        0.0004965759
    5    2    4    4       -0.0141459650
    5    4    4    1       -0.0011384993
    5    4    4    2       -0.0038965294
    5    5    4    4        0.6060346425
    5    1    5    1        0.0239139322
    5    2    5    1        0.0258070823
    5    2    5    2        0.1114390736
    5    3    5    3        0.0254102808
    5    4    5    4        0.0254102808
    5    5    5    1       -0.0000729417
    5    5    5    2       -0.0026246276
    5    5    5    5        0.5468822090
    6    1    1    1        0.0192733756
    6    2    1    1       -0.0292880515
    6    5    1    1       -0.4182014338
    6    6    1    1        0.5342570013
    6    1    2    1       -0.0031820743
    6    1    2    2        0.0007864151
    6    2    2    1        0.0007629515
    6    2    2    2       -0.0174524732
    6    5    2    1        0.0039722502
    6    5    2    2       -0.2891820222
    6    6    2    1       -0.0050674653
    6    6    2    2        0.4222952133
    6    1    3    3        0.0004688506
    6    2    3    3       -0.0170939749
    6    3    3    1       -0.0013504687
    6    3    3    2       -0.0048261772
    6    5    3    3       -0.2654015730
    6    6    3    3        0.4044702499
    6    1    4    4        0.0004688506
    6    2    4    4       -0.0170939749
    6    4    4    1       -0.0013504687
    6    4    4    2       -0.0048261772
    6    5    4    4       -0.2654015730
    6    6    4    4        0.4044702499
    6    1    5    1       -0.0171413290
    6    1    5    2       -0.0190446309
    6    1    5    5        0.0007518248
    6    2    5    1       -0.0177264645
    6    2    5    2       -0.0788777760
    6    2    5    5       -0.0104412009
    6    3    5    3       -0.0215832509
    6    4    5    4       -0.0215832509
    6    5    5    1        0.0004375115
    6    5    5    2        0.0169799826
    6    5    5    5       -0.1518778796
    6    6    5    1        0.0022934900
    6    6    5    2        0.0144708336
    6    6    5    5        0.4384915886
    6    1    6    1        0.0127695837
    6    2    6    1        0.0133447339
    6    2    6    2        0.0594198601
    6    3    6    3        0.0195490790
    6    4    6    4        0.0195490790
    6    5    6    1       -0.0003863136
    6    5    6    2        0.0040336280
    6    5    6    5        0.2206228388
    6    6    6    1       -0.0013038886
    6    6    6    2       -0.0112858845
    6    6    6    5        0.0119959733
    6    6    6    6        0.4563626839
    7    1    1    1       -0.0384713149
    7    2    1    1        0.0430587230
    7    5    1    1        0.0565958412
    7    6    1    1       -0.0423249235
    7    7    1    1        0.2148593120
    7    1    2    1        0.0064796343
    7    1    2    2       -0.0015520108
    7    2    2    1       -0.0013837676
    7    2    2    2        0.0223009817
    7    5    2    1       -0.0009766794
    7    5    2    2        0.0334655541
    7    6    2    1        0.0009318492
    7    6    2    2       -0.0222863405
    7    7    2    1       -0.0002873770
    7    7    2    2        0.2098939436
    7    1    3    3       -0.0009263296
    7    2    3    3        0.0222550908
    7    3    3    1        0.0022931354
    7    3    3    2        0.0065820491
    7    5    3    3        0.0308500692
    7    6    3    3       -0.0207129277
    7    7    3    3        0.2071069409
    7    1    4    4       -0.0009263296
    7    2    4    4        0.0222550908
    7    4    4    1        0.0022931354
    7    4    4    2        0.0065820491
    7    5    4    4        0.0308500692
    7    6    4    4       -0.0207129277
    7    7    4    4        0.2071069409
    7    1    5    1        0.0029366870
    7    1    5    2        0.0033158999
    7    1    5    5       -0.0007161774
    7    2    5    1        0.0027342195
    7    2    5    2        0.0085013640
    7    2    5    5        0.0123561944
    7    3    5    3        0.0019438686
    7    4    5    4        0.0019438686
    7    5    5    1        0.0009563952
    7    5    5    2        0.0003555069
    7    5    5    5        0.0451459022
    7    6    5    1       -0.0007204912
    7    6    5    2        0.0028124769
    7    6    5    5        0.0287668921
    7    7    5    1        0.0020420673
    7    7    5    2        0.0233898857
    7    7    5    5        0.3092094164
    7    1    6    1       -0.0025136246
    7    1    6    2       -0.0022476661
    7    1    6    5        0.0002085727
    7    1    6    6       -0.0000387963
    7    2    6    1       -0.0019965884
    7    2    6    2       -0.0083807937
    7    2    6    5       -0.0089556317
    7    2    6    6        0.0079329865
    7    3    6    3       -0.0027909043
    7    4    6    4       -0.0027909043
    7    5    6    1       -0.0008171453
    7    5    6    2       -0.0014700483
    7    5    6    5        0.0200203947
    7    5    6    6        0.0714236016
    7    6    6    1        0.0004474152
    7    6    6    2        0.0025299166
    7    6    6    5        0.0770422629
    7    6    6    6        0.0954157691
    7    7    6    1       -0.0013393470
    7    7    6    2       -0.0075662784
    7    7    6    5        0.1418068863
    7    7    6    6        0.4274450804
    7    1    7    1        0.0008806168
    7    2    7    1        0.0002534619
    7    2    7    2        0.0025314545
    7    3    7    3        0.0011305676
    7    4    7    4        0.0011305676
    7    5    7    1        0.0000492457
    7    5    7    2        0.0025530050
    7    5    7    5        0.0381818854
    7    6    7    1       -0.0000245573
    7    6    7    2        0.0000040410
    7    6    7    5        0.0566356135
    7    6    7    6        0.0957735814
    7    7    7    1        0.0002147178
    7    7    7    2        0.0016885155
    7    7    7    5        0.0827191533
    7    7    7    6        0.1440716338
    7    7    7    7        0.5077188377
    8    1    1    1       -0.0331473199
    8    2    1    1        0.0336479907
    8    5    1    1        0.1695358844
    8    6    1    1       -0.1747006723
    8    7    1    1        0.0361386680
    8    8    1    1        0.3590996829
    8    1    2    1        0.0055343746
    8    1    2    2       -0.0013324999
    8    2    2    1       -0.0013121773
    8    2    2    2        0.0146163006
    8    5    2    1       -0.0048392946
    8    5    2    2        0.0691499243
    8    6    2    1        0.0041978182
    8    6    2    2       -0.0944342976
    8    7    2    1       -0.0008667547
    8    7    2    2        0.0204188814
    8    8    2    1       -0.0036234609
    8    8    2    2        0.2960403410
    8    1    3    3       -0.0008398206
    8    2    3    3        0.0141081262
    8    3    3    1        0.0016898082
    8    3    3    2        0.0034275302
    8    5    3    3        0.0634086079
    8    6    3    3       -0.0888239956
    8    7    3    3        0.0193006075
    8    8    3    3        0.2880096333
    8    1    4    4       -0.0008398206
    8    2    4    4        0.0141081262
    8    4    4    1        0.0016898082
    8    4    4    2        0.0034275302
    8    5    4    4        0.0634086079
    8    6    4    4       -0.0888239956
    8    7    4    4        0.0193006075
    8    8    4    4        0.2880096333
    8    1    5    1        0.0144365328
    8    1    5    2        0.0143361307
    8    1    5    5       -0.0008710993
    8    2    5    1        0.0085971047
    8    2    5    2        0.0203701180
    8    2    5    5        0.0051857439
    8    3    5    3        0.0050157631
    8    4    5    4        0.0050157631
    8    5    5    1        0.0004328450
    8    5    5    2       -0.0069029526
    8    5    5    5        0.0274121527
    8    6    5    1       -0.0016046339
    8    6    5    2       -0.0054766863
    8    6    5    5       -0.0679311983
    8    7    5    1        0.0009374997
    8    7    5    2        0.0029187700
    8    7    5    5        0.0092779810
    8    8    5    1        0.0032306695
    8    8    5    2        0.0280265392
    8    8    5    5        0.3888180974
    8    1    6    1       -0.0109639261
    8    1    6    2       -0.0099213641
    8    1    6    5        0.0004398508
    8    1    6    6        0.0008770726
    8    2    6    1       -0.0066993509
    8    2    6    2       -0.0213304453
    8    2    6    5       -0.0081008819
    8    2    6    6        0.0028076474
    8    3    6    3       -0.0077291863
    8    4    6    4       -0.0077291863
    8    5    6    1       -0.0001583479
    8    5    6    2       -0.0008142190
    8    5    6    5       -0.0500491194
    8    5    6    6        0.0216531143
    8    6    6    1        0.0008714390
    8    6    6    2        0.0067369395
    8    6    6    5        0.0510423069
    8    6    6    6       -0.0194930540
    8    7    6    1       -0.0005906999
    8    7    6    2       -0.0032137567
    8    7    6    5       -0.0130709709
    8    7    6    6        0.0029987936
    8    8    6    1       -0.0019752456
    8    8    6    2       -0.0118908737
    8    8    6    5        0.1258214921
    8    8    6    6        0.4920191651
    8    1    7    1        0.0022821079
    8    1    7    2        0.0013909859
    8    1    7    5        0.0005159546
    8    1    7    6       -0.0003331734
    8    1    7    7        0.0010237677
    8    2    7    1        0.0009925876
    8    2    7    2        0.0034046558
    8    2    7    5        0.0020717882
    8    2    7    6       -0.0033339172
    8    2    7    7       -0.0035974706
    8    3    7    3        0.0011722496
    8    4    7    4        0.0011722496
    8    5    7    1       -0.0002815485
    8    5    7    2        0.0048135447
    8    5    7    5       -0.0038112192
    8    5    7    6       -0.0123663718
    8    5    7    7       -0.0151327053
    8    6    7    1        0.0000885134
    8    6    7    2       -0.0039910142
    8    6    7    5       -0.0047755775
    8    6    7    6        0.0050300340
    8    6    7    7        0.0063745806
    8    7    7    1        0.0000548412
    8    7    7    2        0.0006404556
    8    7    7    5       -0.0029110414
    8    7    7    6       -0.0045440187
    8    7    7    7       -0.0080529240
    8    8    7    1        0.0001360544
    8    8    7    2        0.0039812882
    8    8    7    5        0.0876807519
    8    8    7    6        0.1446004356
    8    8    7    7        0.5099319776
    8    1    8    1        0.0094227436
    8    2    8    1        0.0050176355
    8    2    8    2        0.0119706200
    8    3    8    3        0.0046133973
    8    4    8    4        0.0046133973
    8    5    8    1       -0.0000548023
    8    5    8    2        0.0062632428
    8    5    8    5        0.0522948222
    8    6    8    1       -0.0005556840
    8    6    8    2       -0.0017785288
    8    6    8    5        0.0332133508
    8    6    8    6        0.0859118987
    8    7    8    1        0.0004418486
    8    7    8    2        0.0019248897
    8    7    8    5        0.0287670716
    8    7    8    6        0.0362308134
    8    7    8    7        0.0345260830
    8    8    8    1        0.0014266652
    8    8    8    2       -0.0026065088
    8    8    8    5       -0.0155065985
    8    8    8    6       -0.0046929881
    8    8    8    7       -0.0065096009
    8    8    8    8        0.6504094860
    9    3    1    1        0.0257805439
    9    4    1    1       -0.0354434357
    9    9    1    1        0.2129152278
    9    3    2    1       -0.0006692508
    9    3    2    2        0.0115549743
    9    4    2    1        0.0009200949
    9    4    2    2       -0.0158859328
    9    9    2    1       -0.0001504731
    9    9    2    2        0.2105847254
    9    1    3    1        0.0023078569
    9    1    3    2        0.0022131541
    9    2    3    1        0.0012771019
    9    2    3    2        0.0029948235
    9    3    3    3        0.0125031986
    9    4    3    3       -0.0146886484
    9    5    3    1       -0.0001790680
    9    5    3    2       -0.0013526627
    9    6    3    1       -0.0002098630
    9    6    3    2       -0.0019184810
    9    7    3    1        0.0001032828
    9    7    3    2        0.0002954165
    9    8    3    1        0.0001572275
    9    8    3    2        0.0010167173
    9    9    3    3        0.2077091015
    9    1    4    1       -0.0031728725
    9    1    4    2       -0.0030426738
    9    2    4    1       -0.0017557767
    9    2    4    2       -0.0041173234
    9    3    4    3       -0.0012117639
    9    3    4    4        0.0106841038
    9    4    4    3        0.0009376924
    9    4    4    4       -0.0171895643
    9    5    4    1        0.0002461850
    9    5    4    2        0.0018596587
    9    6    4    1        0.0002885225
    9    6    4    2        0.0026375533
    9    7    4    1       -0.0001419945
    9    7    4    2       -0.0004061426
    9    8    4    1       -0.0002161584
    9    8    4    2       -0.0013977966
    9    9    4    3       -0.0003364953
    9    9    4    4        0.2079269626
    9    1    5    3       -0.0000643746
    9    1    5    4        0.0000885031
    9    2    5    3       -0.0001824532
    9    2    5    4        0.0002508391
    9    3    5    1        0.0000119359
    9    3    5    2       -0.0004847434
    9    3    5    5        0.0060783326
    9    4    5    1       -0.0000164096
    9    4    5    2        0.0006664317
    9    4    5    5       -0.0083565728
    9    5    5    3       -0.0001959909
    9    5    5    4        0.0002694509
    9    6    5    3       -0.0010383301
    9    6    5    4        0.0014275100
    9    7    5    3       -0.0000213530
    9    7    5    4        0.0000293564
    9    8    5    3        0.0007922158
    9    8    5    4       -0.0010891488
    9    9    5    1        0.0018373559
    9    9    5    2        0.0251024907
    9    9    5    5        0.3444696423
    9    1    6    3       -0.0000740138
    9    1    6    4        0.0001017552
    9    2    6    3       -0.0001127639
    9    2    6    4        0.0001550293
    9    3    6    1        0.0000260989
    9    3    6    2       -0.0003104569
    9    3    6    5       -0.0052850705
    9    3    6    6        0.0030826684
    9    4    6    1       -0.0000358811
    9    4    6    2        0.0004268202
    9    4    6    5        0.0072659854
    9    4    6    6       -0.0042380937
    9    5    6    3       -0.0009400839
    9    5    6    4        0.0012924399
    9    6    6    3        0.0005315147
    9    6    6    4       -0.0007307335
    9    7    6    3       -0.0001320342
    9    7    6    4        0.0001815223
    9    8    6    3       -0.0004996605
    9    8    6    4        0.0006869399
    9    9    6    1       -0.0011991736
    9    9    6    2       -0.0060228608
    9    9    6    5        0.1916188240
    9    9    6    6        0.5037293710
    9    1    7    3        0.0001342490
    9    1    7    4       -0.0001845673
    9    2    7    3        0.0004145904
    9    2    7    4       -0.0005699845
    9    3    7    1       -0.0000384610
    9    3    7    2        0.0008201244
    9    3    7    5        0.0003833834
    9    3    7    6       -0.0009190875
    9    3    7    7       -0.0006009415
    9    4    7    1        0.0000528767
    9    4    7    2       -0.0011275179
    9    4    7    5       -0.0005270807
    9    4    7    6        0.0012635738
    9    4    7    7        0.0008261824
    9    5    7    3        0.0001421313
    9    5    7    4       -0.0001954040
    9    6    7    3        0.0001076817
    9    6    7    4       -0.0001480423
    9    7    7    3       -0.0000194971
    9    7    7    4        0.0000268049
    9    8    7    3       -0.0000787934
    9    8    7    4        0.0001083262
    9    9    7    1        0.0001983469
    9    9    7    2        0.0017137897
    9    9    7    5        0.0979704310
    9    9    7    6        0.1705245145
    9    9    7    7        0.5561491536
    9    1    8    3        0.0001015337
    9    1    8    4       -0.0001395899
    9    2    8    3        0.0002875661
    9    2    8    4       -0.0003953497
    9    3    8    1       -0.0000386375
    9    3    8    2        0.0005734905
    9    3    8    5        0.0025809264
    9    3    8    6       -0.0019647043
    9    3    8    7        0.0003401574
    9    3    8    8        0.0004989945
    9    4    8    1        0.0000531193
    9    4    8    2       -0.0007884424
    9    4    8    5       -0.0035482921
    9    4    8    6        0.0027011016
    9    4    8    7       -0.0004676529
    9    4    8    8       -0.0006860243
    9    5    8    3        0.0007862773
    9    5    8    4       -0.0010809846
    9    6    8    3       -0.0000968717
    9    6    8    4        0.0001331805
    9    7    8    3        0.0000620220
    9    7    8    4       -0.0000852687
    9    8    8    3       -0.0000964896
    9    8    8    4        0.0001326552
    9    9    8    1        0.0009182307
    9    9    8    2       -0.0049067195
    9    9    8    5       -0.0209661800
    9    9    8    6        0.0097638902
    9    9    8    7       -0.0094849967
    9    9    8    8        0.6198545102
    9    1    9    1        0.0004011213
    9    2    9    1        0.0002209065
    9    2    9    2        0.0006748380
    9    3    9    3        0.0008662321
    9    4    9    3       -0.0007784504
    9    4    9    4        0.0013702334
    9    5    9    1       -0.0000244715
    9    5    9    2        0.0012445427
    9    5    9    5        0.0370278759
    9    6    9    1       -0.0000239773
    9    6    9    2        0.0018094140
    9    6    9    5        0.0558256614
    9    6    9    6        0.0856148852
    9    7    9    1        0.0000175201
    9    7    9    2        0.0009507164
    9    7    9    5        0.0312513160
    9    7    9    6        0.0484015659
    9    7    9    7        0.0395125919
    9    8    9    1        0.0000221411
    9    8    9    2       -0.0002777435
    9    8    9    5       -0.0017940487
    9    8    9    6        0.0008479198
    9    8    9    7       -0.0007525790
    9    8    9    8        0.0407408461
    9    9    9    3       -0.0011042650
    9    9    9    4        0.0015181582
    9    9    9    9        0.7776958759
   10    3    1    1       -0.0354434357
   10    4    1    1       -0.0257805439
   10   10    1    1        0.2129152278
   10    3    2    1        0.0009200949
   10    3    2    2       -0.0158859328
   10    4    2    1        0.0006692508
   10    4    2    2       -0.0115549743
   10   10    2    1       -0.0001504731
   10   10    2    2        0.2105847254
   10    1    3    1       -0.0031728725
   10    1    3    2       -0.0030426738
   10    2    3    1       -0.0017557767
   10    2    3    2       -0.0041173234
   10    3    3    3       -0.0171895643
   10    4    3    3       -0.0106841038
   10    5    3    1        0.0002461850
   10    5    3    2        0.0018596587
   10    6    3    1        0.0002885225
   10    6    3    2        0.0026375533
   10    7    3    1       -0.0001419945
   10    7    3    2       -0.0004061426
   10    8    3    1       -0.0002161584
   10    8    3    2       -0.0013977966
   10    9    3    3       -0.0003364953
   10   10    3    3        0.2079269626
   10    1    4    1       -0.0023078569
   10    1    4    2       -0.0022131541
   10    2    4    1       -0.0012771019
   10    2    4    2       -0.0029948235
   10    3    4    3       -0.0008814025
   10    3    4    4       -0.0146886484
   10    4    4    3       -0.0012891520
   10    4    4    4       -0.0125031986
   10    5    4    1        0.0001790680
   10    5    4    2        0.0013526627
   10    6    4    1        0.0002098630
   10    6    4    2        0.0019184810
   10    7    4    1       -0.0001032828
   10    7    4    2       -0.0002954165
   10    8    4    1       -0.0001572275
   10    8    4    2       -0.0010167173
   10    9    4    3        0.0001096213
   10    9    4    4        0.0003364953
   10   10    4    3        0.0003364953
   10   10    4    4        0.2077091015
   10    1    5    3        0.0000885031
   10    1    5    4        0.0000643746
   10    2    5    3        0.0002508391
   10    2    5    4        0.0001824532
   10    3    5    1       -0.0000164096
   10    3    5    2        0.0006664317
   10    3    5    5       -0.0083565728
   10    4    5    1       -0.0000119359
   10    4    5    2        0.0004847434
   10    4    5    5       -0.0060783326
   10    5    5    3        0.0002694509
   10    5    5    4        0.0001959909
   10    6    5    3        0.0014275100
   10    6    5    4        0.0010383301
   10    7    5    3        0.0000293564
   10    7    5    4        0.0000213530
   10    8    5    3       -0.0010891488
   10    8    5    4       -0.0007922158
   10   10    5    1        0.0018373559
   10   10    5    2        0.0251024907
   10   10    5    5        0.3444696423
   10    1    6    3        0.0001017552
   10    1    6    4        0.0000740138
   10    2    6    3        0.0001550293
   10    2    6    4        0.0001127639
   10    3    6    1       -0.0000358811
   10    3    6    2        0.0004268202
   10    3    6    5        0.0072659854
   10    3    6    6       -0.0042380937
   10    4    6    1       -0.0000260989
   10    4    6    2        0.0003104569
   10    4    6    5        0.0052850705
   10    4    6    6       -0.0030826684
   10    5    6    3        0.0012924399
   10    5    6    4        0.0009400839
   10    6    6    3       -0.0007307335
   10    6    6    4       -0.0005315147
   10    7    6    3        0.0001815223
   10    7    6    4        0.0001320342
   10    8    6    3        0.0006869399
   10    8    6    4        0.0004996605
   10   10    6    1       -0.0011991736
   10   10    6    2       -0.0060228608
   10   10    6    5        0.1916188240
   10   10    6    6        0.5037293710
   10    1    7    3       -0.0001845673
   10    1    7    4       -0.0001342490
   10    2    7    3       -0.0005699845
   10    2    7    4       -0.0004145904
   10    3    7    1        0.0000528767
   10    3    7    2       -0.0011275179
   10    3    7    5       -0.0005270807
   10    3    7    6        0.0012635738
   10    3    7    7        0.0008261824
   10    4    7    1        0.0000384610
   10    4    7    2       -0.0008201244
   10    4    7    5       -0.0003833834
   10    4    7    6        0.0009190875
   10    4    7    7        0.0006009415
   10    5    7    3       -0.0001954040
   10    5    7    4       -0.0001421313
   10    6    7    3       -0.0001480423
   10    6    7    4       -0.0001076817
   10    7    7    3        0.0000268049
   10    7    7    4        0.0000194971
   10    8    7    3        0.0001083262
   10    8    7    4        0.0000787934
   10   10    7    1        0.0001983469
   10   10    7    2        0.0017137897
   10   10    7    5        0.0979704310
   10   10    7    6        0.1705245145
   10   10    7    7        0.5561491536
   10    1    8    3       -0.0001395899
   10    1    8    4       -0.0001015337
   10    2    8    3       -0.0003953497
   10    2    8    4       -0.0002875661
   10    3    8    1        0.0000531193
   10    3    8    2       -0.0007884424
   10    3    8    5       -0.0035482921
   10    3    8    6        0.0027011016
   10    3    8    7       -0.0004676529
   10    3    8    8       -0.0006860243
   10    4    8    1        0.0000386375
   10    4    8    2       -0.0005734905
   10    4    8    5       -0.0025809264
   10    4    8    6        0.0019647043
   10    4    8    7       -0.0003401574
   10    4    8    8       -0.0004989945
   10    5    8    3       -0.0010809846
   10    5    8    4       -0.0007862773
   10    6    8    3        0.0001331805
   10    6    8    4        0.0000968717
   10    7    8    3       -0.0000852687
   10    7    8    4       -0.0000620220
   10    8    8    3        0.0001326552
   10    8    8    4        0.0000964896
   10   10    8    1        0.0009182307
   10   10    8    2       -0.0049067195
   10   10    8    5       -0.0209661800
   10   10    8    6        0.0097638902
   10   10    8    7       -0.0094849967
   10   10    8    8        0.6198545102
   10    3    9    3       -0.0007784504
   10    3    9    4        0.0007468225
   10    3    9    9        0.0012549747
   10    4    9    3       -0.0002428211
   10    4    9    4        0.0007784504
   10    4    9    9        0.0009128328
   10    9    9    3        0.0001307400
   10    9    9    4        0.0000950966
   10   10    9    3       -0.0009128328
   10   10    9    4        0.0012549747
   10   10    9    9        0.6828262154
   10    1   10    1        0.0004011213
   10    2   10    1        0.0002209065
   10    2   10    2        0.0006748380
   10    3   10    3        0.0013702334
   10    4   10    3        0.0007784504
   10    4   10    4        0.0008662321
   10    5   10    1       -0.0000244715
   10    5   10    2        0.0012445427
   10    5   10    5        0.0370278759
   10    6   10    1       -0.0000239773
   10    6   10    2        0.0018094140
   10    6   10    5        0.0558256614
   10    6   10    6        0.0856148852
   10    7   10    1        0.0000175201
   10    7   10    2        0.0009507164
   10    7   10    5        0.0312513160
   10    7   10    6        0.0484015659
   10    7   10    7        0.0395125919
   10    8   10    1        0.0000221411
   10    8   10    2       -0.0002777435
   10    8   10    5       -0.0017940487
   10    8   10    6        0.0008479198
   10    8   10    7       -0.0007525790
   10    8   10    8        0.0407408461
   10    9   10    3       -0.0000963356
   10    9   10    4        0.0001324435
   10    9   10    9        0.0474348302
   10   10   10    3        0.0015181582
   10   10   10    4        0.0011042650
   10   10   10   10        0.7776958759
 end_two_electron_integrals
 fcidump
      5.3568384809     1   1   1   1
     -0.5447970236     2   1   1   1
      0.0877869451     2   1   2   1
      1.2926581104     2   2   1   1
     -0.0252304158     2   2   2   1
      0.9005085182     2   2   2   2
      0.0378328354     3   1   3   1
      0.0409627124     3   2   3   1
      0.1699266235     3   2   3   2
      1.2451201277     3   3   1   1
     -0.0169460767     3   3   2   1
      0.8723219163     3   3   2   2
      0.8988816834     3   3   3   3
      0.0378328354     4   1   4   1
      0.0409627124     4   2   4   1
      0.1699266235     4   2   4   2
      0.0394288986     4   3   4   3
      1.2451201277     4   4   1   1
     -0.0169460767     4   4   2   1
      0.8723219163     4   4   2   2
      0.8155622691     4   4   3   3
      0.8988816834     4   4   4   4
      0.0165897570     5   1   1   1
     -0.0027698684     5   1   2   1
      0.0007484935     5   1   2   2
      0.0004965759     5   1   3   3
      0.0004965759     5   1   4   4
      0.0239139322     5   1   5   1
     -0.0264879459     5   2   1   1
      0.0008229122     5   2   2   1
     -0.0144937209     5   2   2   2
     -0.0141459650     5   2   3   3
     -0.0141459650     5   2   4   4
      0.0258070823     5   2   5   1
      0.1114390736     5   2   5   2
     -0.0011384993     5   3   3   1
     -0.0038965294     5   3   3   2
      0.0254102808     5   3   5   3
     -0.0011384993     5   4   4   1
     -0.0038965294     5   4   4   2
      0.0254102808     5   4   5   4
      0.8837642482     5   5   1   1
     -0.0105038382     5   5   2   1
      0.6465452501     5   5   2   2
      0.6060346425     5   5   3   3
      0.6060346425     5   5   4   4
     -0.0000729417     5   5   5   1
     -0.0026246276     5   5   5   2
      0.5468822090     5   5   5   5
      0.0192733756     6   1   1   1
     -0.0031820743     6   1   2   1
      0.0007864151     6   1   2   2
      0.0004688506     6   1   3   3
      0.0004688506     6   1   4   4
     -0.0171413290     6   1   5   1
     -0.0190446309     6   1   5   2
      0.0007518248     6   1   5   5
      0.0127695837     6   1   6   1
     -0.0292880515     6   2   1   1
      0.0007629515     6   2   2   1
     -0.0174524732     6   2   2   2
     -0.0170939749     6   2   3   3
     -0.0170939749     6   2   4   4
     -0.0177264645     6   2   5   1
     -0.0788777760     6   2   5   2
     -0.0104412009     6   2   5   5
      0.0133447339     6   2   6   1
      0.0594198601     6   2   6   2
     -0.0013504687     6   3   3   1
     -0.0048261772     6   3   3   2
     -0.0215832509     6   3   5   3
      0.0195490790     6   3   6   3
     -0.0013504687     6   4   4   1
     -0.0048261772     6   4   4   2
     -0.0215832509     6   4   5   4
      0.0195490790     6   4   6   4
     -0.4182014338     6   5   1   1
      0.0039722502     6   5   2   1
     -0.2891820222     6   5   2   2
     -0.2654015730     6   5   3   3
     -0.2654015730     6   5   4   4
      0.0004375115     6   5   5   1
      0.0169799826     6   5   5   2
     -0.1518778796     6   5   5   5
     -0.0003863136     6   5   6   1
      0.0040336280     6   5   6   2
      0.2206228388     6   5   6   5
      0.5342570013     6   6   1   1
     -0.0050674653     6   6   2   1
      0.4222952133     6   6   2   2
      0.4044702499     6   6   3   3
      0.4044702499     6   6   4   4
      0.0022934900     6   6   5   1
      0.0144708336     6   6   5   2
      0.4384915886     6   6   5   5
     -0.0013038886     6   6   6   1
     -0.0112858845     6   6   6   2
      0.0119959733     6   6   6   5
      0.4563626839     6   6   6   6
     -0.0384713149     7   1   1   1
      0.0064796343     7   1   2   1
     -0.0015520108     7   1   2   2
     -0.0009263296     7   1   3   3
     -0.0009263296     7   1   4   4
      0.0029366870     7   1   5   1
      0.0033158999     7   1   5   2
     -0.0007161774     7   1   5   5
     -0.0025136246     7   1   6   1
     -0.0022476661     7   1   6   2
      0.0002085727     7   1   6   5
     -0.0000387963     7   1   6   6
[...]
 tce:printtol                          double[1]      Wed Jul 31 08:47:16 2019 
 tce:restart_ccsd_t                       int[1]      Wed Jul 31 08:47:16 2019 
 scf:nclosed                              int[1]      Wed Jul 31 08:47:16 2019 
 geometry:geometry:atomct              double[2]      Wed Jul 31 08:47:16 2019 
 scf:nmo                                  int[1]      Wed Jul 31 08:47:16 2019 
 tce:nroots_restart                       int[1]      Wed Jul 31 08:47:16 2019 
 tce:leftresp                         logical[1]      Wed Jul 31 08:47:16 2019 
 :print                                  char[5]      Wed Jul 31 08:47:16 2019 
 task:theory                             char[4]      Wed Jul 31 08:47:16 2019 
 tce:skip_l                           logical[1]      Wed Jul 31 08:47:16 2019 
 tce:maxs                                 int[1]      Wed Jul 31 08:47:16 2019 
 task:cputime                          double[1]      Wed Jul 31 08:47:28 2019 
 task:walltime                         double[1]      Wed Jul 31 08:47:28 2019 
 tce:ioalg                                int[1]      Wed Jul 31 08:47:16 2019 
 tce:bfreq                             double[1]      Wed Jul 31 08:47:16 2019 
 tce:damp                              double[1]      Wed Jul 31 08:47:16 2019 
 geometry:geometry:efield              double[3]      Wed Jul 31 08:47:16 2019 
 tce:fragment                             int[1]      Wed Jul 31 08:47:16 2019 
 tce:multipole                            int[1]      Wed Jul 31 08:47:16 2019 
 geometry:geometry:use_primitive        logical[1]      Wed Jul 31 08:47:16 2019 
 tce:save_lr                          logical[8]      Wed Jul 31 08:47:16 2019 
 tce:skip_lr                          logical[1]      Wed Jul 31 08:47:16 2019 
 tce:reference                            int[1]      Wed Jul 31 08:47:16 2019 
 tce:restart_ignore_failure           logical[4]      Wed Jul 31 08:47:16 2019 
 tce:guess_lr_real                    logical[1]      Wed Jul 31 08:47:16 2019 
 basis:ao basis:tags info                 int[280]    Wed Jul 31 08:47:16 2019 
 tce:skip_t                           logical[1]      Wed Jul 31 08:47:16 2019 
 tce:hbard                                int[1]      Wed Jul 31 08:47:16 2019 
 tce:diagnt1                          logical[1]      Wed Jul 31 08:47:16 2019 
 tce:read_integrals                   logical[5]      Wed Jul 31 08:47:16 2019 
 tce:bnumfreq                             int[1]      Wed Jul 31 08:47:16 2019 
 tce:ccsdvar                             char[5]      Wed Jul 31 08:47:16 2019 
 tce:lineresp                         logical[1]      Wed Jul 31 08:47:16 2019 
 tce:save_l                           logical[4]      Wed Jul 31 08:47:16 2019 
 tce:ichopx                               int[1]      Wed Jul 31 08:47:16 2019 
 tce:nogamma                          logical[1]      Wed Jul 31 08:47:16 2019 
 scf:dipole                            double[3]      Wed Jul 31 08:47:16 2019 
 geometry:ngeom                           int[1]      Wed Jul 31 08:47:16 2019 
 tce:uact                                 int[1]      Wed Jul 31 08:47:16 2019 
 tce:save_tr                          logical[8]      Wed Jul 31 08:47:16 2019 
 geometry:geometry:operators           double[2304]   Wed Jul 31 08:47:16 2019 
 tce:zlshiftl                          double[1]      Wed Jul 31 08:47:16 2019 
 tce:skip_tr                          logical[1]      Wed Jul 31 08:47:16 2019 
 basis:ao basis:star nr tags              int[1]      Wed Jul 31 08:47:16 2019 
 tce:anumfreq                             int[1]      Wed Jul 31 08:47:16 2019 
 tce:save_t                           logical[4]      Wed Jul 31 08:47:16 2019 
 geometry:geometry:recip vectors         double[3]      Wed Jul 31 08:47:16 2019 
 tce:model                               char[5]      Wed Jul 31 08:47:16 2019 
 tce:maxiter                              int[1]      Wed Jul 31 08:47:16 2019 
 tce:symmetry                         logical[1]      Wed Jul 31 08:47:16 2019 
 tce:save_x                           logical[4]      Wed Jul 31 08:47:16 2019 
 geometry:geometry:no. unique centers            int[1]      Wed Jul 31 08:47:16 2019 
 basis:ao basis:contraction info            int[90000]  Wed Jul 31 08:47:16 2019 
 tce:save_y                           logical[4]      Wed Jul 31 08:47:16 2019 
 basis:ao basis:bs_nr_tags                int[1]      Wed Jul 31 08:47:16 2019 
 geometry:geometry:group number            int[1]      Wed Jul 31 08:47:16 2019 
 tce:nactv                                int[1]      Wed Jul 31 08:47:16 2019 
 tce:active_va                            int[1]      Wed Jul 31 08:47:16 2019 
 geometry:geometry:recip angles         double[3]      Wed Jul 31 08:47:16 2019 
 tce:active_vb                            int[1]      Wed Jul 31 08:47:16 2019 
 tce:active_oa                            int[1]      Wed Jul 31 08:47:16 2019 
 tce:active_ob                            int[1]      Wed Jul 31 08:47:16 2019 
 tce:thresh                            double[1]      Wed Jul 31 08:47:16 2019 
 geometry:geometry:system type            int[1]      Wed Jul 31 08:47:16 2019 
 tce:energy                            double[1]      Wed Jul 31 08:47:28 2019 
 tce:nopolar                          logical[1]      Wed Jul 31 08:47:16 2019 
 basis:ao basis:bs_stdname               char[16]     Wed Jul 31 08:47:16 2019 
 geometry:geometry:charges             double[2]      Wed Jul 31 08:47:16 2019 
 tce:respaxis                         logical[3]      Wed Jul 31 08:47:16 2019 
 tce:perturbative                        char[5]      Wed Jul 31 08:47:16 2019 
 scf:multiplicity                        char[8]      Wed Jul 31 08:47:16 2019 
 scf:output vectors                      char[23]     Wed Jul 31 08:47:16 2019 
 basis:ao basis:header                    int[7]      Wed Jul 31 08:47:16 2019 
 geometry:geometry:tags                  char[4]      Wed Jul 31 08:47:16 2019 
 scf:input vectors                       char[23]     Wed Jul 31 08:47:16 2019 
 geometry:geometry:include_bqbq        logical[1]      Wed Jul 31 08:47:16 2019 
 tce:qducc                            logical[1]      Wed Jul 31 08:47:16 2019 
 geometry:geometry:group name            char[3]      Wed Jul 31 08:47:16 2019 
 tce:model2e                             char[6]      Wed Jul 31 08:47:16 2019 
 tce:eactmax                           double[1]      Wed Jul 31 08:47:16 2019 
 tce:zlshift2                          double[2]      Wed Jul 31 08:47:16 2019 
 tce:eactmin                           double[1]      Wed Jul 31 08:47:16 2019 
 basisprint:ao basis                  logical[1]      Wed Jul 31 08:47:16 2019 
 tce:oact                                 int[1]      Wed Jul 31 08:47:16 2019 
 tce:zlshift3                          double[2]      Wed Jul 31 08:47:16 2019 
 tce:densmat                          logical[1]      Wed Jul 31 08:47:16 2019 
 tce:nroots                               int[1]      Wed Jul 31 08:47:16 2019 
 scf:converged                        logical[1]      Wed Jul 31 08:47:16 2019 
 scf:nelec                                int[1]      Wed Jul 31 08:47:16 2019 
 tce:maxdiff                           double[1]      Wed Jul 31 08:47:16 2019 
 tce:guess_qr_real                    logical[1]      Wed Jul 31 08:47:16 2019 
 basis:ao basis:number of exps and coeffs            int[1]      Wed Jul 31 08:47:16 2019 
 geometry:names                          char[9]      Wed Jul 31 08:47:16 2019 
 geometry:geometry:masses              double[2]      Wed Jul 31 08:47:16 2019 
 tce:zlshift                           double[1]      Wed Jul 31 08:47:16 2019 
 tce:eoms                                 int[1]      Wed Jul 31 08:47:16 2019 
 tce:ampnorms                         logical[1]      Wed Jul 31 08:47:16 2019 
 scf:scftype                             char[4]      Wed Jul 31 08:47:16 2019 
 tce:diis2                                int[1]      Wed Jul 31 08:47:16 2019 
 tce:read_l                           logical[4]      Wed Jul 31 08:47:16 2019 
 tce:enegr                             double[1]      Wed Jul 31 08:47:28 2019 
 basis:ao basis:exps and coeffs         double[54]     Wed Jul 31 08:47:16 2019 
 tce:diis3                                int[1]      Wed Jul 31 08:47:16 2019 
 geometry:geometry:unique centers            int[2]      Wed Jul 31 08:47:16 2019 
 tce:read_lr                          logical[8]      Wed Jul 31 08:47:16 2019 
 geometry:geometry:amatrix             double[9]      Wed Jul 31 08:47:16 2019 
 geometry:geometry:inv nuc expon         double[2]      Wed Jul 31 08:47:16 2019 
 geometry:geometry:vel                 double[6]      Wed Jul 31 08:47:16 2019 
 task:status                          logical[1]      Wed Jul 31 08:47:28 2019 
 geometry:geometry:direct volume         double[1]      Wed Jul 31 08:47:16 2019 
 tce:afreq                             double[1]      Wed Jul 31 08:47:16 2019 
 geometry:geometry:num_operators            int[1]      Wed Jul 31 08:47:16 2019 
 tce:read_t                           logical[4]      Wed Jul 31 08:47:16 2019 
 tce:save_interval                        int[1]      Wed Jul 31 08:47:16 2019 
 basis:nbasis                             int[1]      Wed Jul 31 08:47:16 2019 
 file_prefix                             char[14]     Wed Jul 31 08:47:16 2019 
 geometry:geometry:primitive_center           char[2]      Wed Jul 31 08:47:16 2019 
 task:energy                           double[1]      Wed Jul 31 08:47:28 2019 
 geometry:geometry:ncenter                int[1]      Wed Jul 31 08:47:16 2019 
 tce:idiskx                               int[1]      Wed Jul 31 08:47:16 2019 
 tce:damp2                             double[1]      Wed Jul 31 08:47:16 2019 
 tce:quadresp                         logical[1]      Wed Jul 31 08:47:16 2019 
 tce:damp3                             double[1]      Wed Jul 31 08:47:16 2019 
 scf:thresh                            double[1]      Wed Jul 31 08:47:16 2019 
 scf:energy                            double[1]      Wed Jul 31 08:47:16 2019 
 tce:read_tr                          logical[8]      Wed Jul 31 08:47:16 2019 
 tce:read_x                           logical[4]      Wed Jul 31 08:47:16 2019 
 basis:ao basis:assoc ecp name           char[4]      Wed Jul 31 08:47:16 2019 
 tce:read_y                           logical[4]      Wed Jul 31 08:47:16 2019 
 geometry:geometry:zmt_source            char[2]      Wed Jul 31 08:47:16 2019 
 geometry:geometry:setting number            int[1]      Wed Jul 31 08:47:16 2019 
 tce:act_excit_lvl                        int[1]      Wed Jul 31 08:47:16 2019 
 basis:ao basis:bs_tags                  char[4]      Wed Jul 31 08:47:16 2019 
 tce:i4im                                 int[1]      Wed Jul 31 08:47:16 2019 
 scf:tol2e                             double[1]      Wed Jul 31 08:47:16 2019 
 tce:diis                                 int[1]      Wed Jul 31 08:47:16 2019 
 tce:recompf                          logical[1]      Wed Jul 31 08:47:16 2019 
 rtdb:stored:state                    logical[3]      Wed Jul 31 08:47:16 2019 
 scf:alpha irreps                         int[19]     Wed Jul 31 08:47:16 2019 
 tce:module                              char[4]      Wed Jul 31 08:47:16 2019 
 tce:target                               int[1]      Wed Jul 31 08:47:16 2019 
 tce:left                             logical[1]      Wed Jul 31 08:47:16 2019 


 HDBM usage statistics
 ---------------------
 Reads         = 1764
 Inserts       = 928
 Replaces      = 320
 Extracts      = 0
 Deletes       = 1842
 Reuses        = 16

 Memory allocs = 8533
 Memory frees  = 8533
 Memory max    = 1512932
 Memory in use = 0

 IO seeks      = 3460
 IO reads      = 2511
 IO writes     = 2803
 IO nread      = 3035343
 IO nwrite     = 2275903

 Summary of allocated global arrays
-----------------------------------
  No active global arrays



                         GA Statistics for process    0
                         ------------------------------

       create   destroy   get      put      acc     scatter   gather  read&inc
calls: 3311     3311     1.04e+04 4120     6283        0        0     6985     
number of processes/call 4.95e+14 6.98e+14 1.86e+13 0.00e+00 0.00e+00
bytes total:             2.98e+08 1.51e+07 7.24e+07 0.00e+00 0.00e+00 5.59e+04
bytes remote:            0.00e+00 0.00e+00 0.00e+00 0.00e+00 0.00e+00 0.00e+00
Max memory consumed for GA by this process: 1663800 bytes

MA_summarize_allocated_blocks: starting scan ...
MA_summarize_allocated_blocks: scan completed: 0 heap blocks, 0 stack blocks
MA usage statistics:

	allocation statistics:
					      heap	     stack
					      ----	     -----
	current number of blocks	         0	         0
	maximum number of blocks	        17	        40
	current total bytes		         0	         0
	maximum total bytes		   1060368	  55520424
	maximum total K-bytes		      1061	     55521
	maximum total M-bytes		         2	        56

	calls per routine:
		        39  MA_alloc_get
		        39  MA_allocate_heap
		       194  MA_chop_stack
		        39  MA_free_heap
		         0  MA_free_heap_piece
		     24643  MA_get_index
		         5  MA_get_mbase
		         0  MA_get_next_memhandle
		         0  MA_get_numalign
		        61  MA_get_pointer
		         1  MA_init
		         0  MA_initialized
		         0  MA_init_memhandle_iterator
		       388  MA_inquire_avail
		         1  MA_inquire_heap
		         0  MA_inquire_heap_check_stack
		         0  MA_inquire_heap_no_partition
		         1  MA_inquire_stack
		         0  MA_inquire_stack_check_heap
		         0  MA_inquire_stack_no_partition
		     24383  MA_pop_stack
		         1  MA_print_stats
		     24604  MA_push_get
		     24665  MA_push_stack
		         3  MA_set_auto_verify
		         1  MA_set_error_print
		         3  MA_set_hard_fail
		         1  MA_set_numalign
		      9115  MA_sizeof
		        31  MA_sizeof_overhead
		         1  MA_summarize_allocated_blocks
		         0  MA_trace
		     83556  MA_verify_allocator_stuff


                                     CITATION
                                     --------
                Please cite the following reference when publishing
                           results obtained with NWChem:

                 M. Valiev, E.J. Bylaska, N. Govind, K. Kowalski,
              T.P. Straatsma, H.J.J. van Dam, D. Wang, J. Nieplocha,
                        E. Apra, T.L. Windus, W.A. de Jong
                 "NWChem: a comprehensive and scalable open-source
                  solution for large scale molecular simulations"
                      Comput. Phys. Commun. 181, 1477 (2010)
                           doi:10.1016/j.cpc.2010.04.018

                                      AUTHORS
                                      -------
          E. Apra, E. J. Bylaska, W. A. de Jong, N. Govind, K. Kowalski,
       T. P. Straatsma, M. Valiev, H. J. J. van Dam, D. Wang, T. L. Windus,
        J. Hammond, J. Autschbach, K. Bhaskaran-Nair, J. Brabec, K. Lopata,
    S. A. Fischer, S. Krishnamoorthy, M. Jacquelin, W. Ma, M. Klemm, O. Villa,
      Y. Chen, V. Anisimov, F. Aquino, S. Hirata, M. T. Hackler, V. Konjkov,
            D. Mejia-Rodriguez, T. Risthaus, M. Malagoli, A. Marenich,
   A. Otero-de-la-Roza, J. Mullin, P. Nichols, R. Peverati, J. Pittner, Y. Zhao,
        P.-D. Fan, A. Fonari, M. J. Williamson, R. J. Harrison, J. R. Rehr,
      M. Dupuis, D. Silverstein, D. M. A. Smith, J. Nieplocha, V. Tipparaju,
    M. Krishnan, B. E. Van Kuiken, A. Vazquez-Mayagoitia, L. Jensen, M. Swart,
      Q. Wu, T. Van Voorhis, A. A. Auer, M. Nooijen, L. D. Crosby, E. Brown,
      G. Cisneros, G. I. Fann, H. Fruchtl, J. Garza, K. Hirao, R. A. Kendall,
      J. A. Nichols, K. Tsemekhman, K. Wolinski, J. Anchell, D. E. Bernholdt,
      P. Borowski, T. Clark, D. Clerc, H. Dachsel, M. J. O. Deegan, K. Dyall,
    D. Elwood, E. Glendening, M. Gutowski, A. C. Hess, J. Jaffe, B. G. Johnson,
     J. Ju, R. Kobayashi, R. Kutteh, Z. Lin, R. Littlefield, X. Long, B. Meng,
      T. Nakajima, S. Niu, L. Pollack, M. Rosing, K. Glaesemann, G. Sandrone,
      M. Stave, H. Taylor, G. Thomas, J. H. van Lenthe, A. T. Wong, Z. Zhang.

                                    REFERENCES
                                    ----------

          Where appropriate, please cite the following reference(s) 
          when publishing results obtained with NWChem:


     1. D. E. Bernholdt, E. Apra, H. A. Fruchtl, M.F. Guest, R. J. Harrison, 
        R. A. Kendall, R. A. Kutteh, X. Long, J. B. Nicholas, J. A. Nichols, 
        H. L. Taylor, A. T. Wong, G. I. Fann, R. J. Littlefield and
        J. Nieplocha,
        "Parallel Computational Chemistry Made Easier: 
        The Development of NWChem,"
        Int. J. Quantum Chem. Symposium  29, 475-483 (1995).


     2. M. F. Guest, E. Apra, D. E. Bernholdt, H. A. Fruchtl, R. J. Harrison, 
        R. A. Kendall, R. A. Kutteh, X. Long, J. B. Nicholas, J. A. Nichols, 
        H. L. Taylor, A. T. Wong, G. I. Fann, R. J. Littlefield and
        J. Nieplocha,
        "High Performance Computational Chemistry: NWChem and Fully Distributed
        Parallel Applications", in Advances in Parallel Computing, 10, High
        Performance Computing: Technology, Methods, and Applications, Eds. 
        J. Dongarra, L. Gradinetti, G. Joubert, and J. Kowalik, 
        (Elsevier Science B. V. pp. 395-427, 1995).


     3. M. F. Guest, E. Apra, D. E. Bernholdt, H. A. Fruchtl, R. J. Harrison, 
        R. A. Kendall, R. A. Kutteh, J. B. Nicholas, J. A. Nichols, M. S. Stave,
        A. T. Wong, R. J. Littlefield and J. Nieplocha, "High Performance 
        Computational Chemistry: Towards Fully Distributed Parallel Algorithms",
        in High Performance Computing: Symposium 1995, Grand Challenges in 
        Computer Simulation, Adrian M. Tentner, Editor, Proceedings of the 1995 
        Simulation Multiconference, April 9-13, 1995, Phoenix, Arizona, 
        Simulation Councils, Inc., The Society for Computer Simulation, 
        San Diego, CA, 1995. pp. 511-521.


     4. M. F. Guest, E. Apra, D. E. Bernholdt, H. A. Fruchtl, R. J. Harrison,
        R. A. Kendall, R. A. Kutteh, X. Long, J. B. Nicholas, J. A. Nichols, 
        H. L. Taylor, A. T. Wong, G. I. Fann, R. J. Littlefield and
        J. Nieplocha,
        "Advances in Parallel Distributed Data Software; Computational Chemistry
        and NWChem", in Applied Parallel Computing.  Computations in Physics,
        Chemistry, and Engineering Science, Eds. J. Wasnieski, J. Dongarra, and 
        K. Madsen, Lecture Notes in Computer Science, 1041,
        (Springer-Verlag, Berlin, 278-294, 1996).


     5. M. F. Guest, E. Apra, D. E. Bernholdt, H. A. Fruchtl, R. J. Harrison,
        R. A. Kendall, R. A. Kutteh, X. Long, J. B. Nicholas, J. A. Nichols, 
        H. L. Taylor, A. T. Wong, G. I. Fann, R. J. Littlefield and
        J. Nieplocha, 
        "High-Performance Computing in Chemistry; NWChem", Future 
        Generations Computer Systems  12(4), 273, (1996).


     6. R. A. Kendall, E. Apra, D. E. Bernholdt, E. J. Bylaska, M. Dupuis,
        G. I. Fann, R. J. Harrison, J. Ju, J. A. Nichols, J. Nieplocha,
        T. P. Straatsma, T. L. Windus, A. T. Wong,
        Computer Phys. Comm. 128, 260 (2000).


     7. T. P. Straatsma and V. Helms, in Molecular Dynamics on Parallel
        Computers2000, R. Esser et al. editors, p 70.


     8.  T. P. Straatsma, M. Philippopoulos and J. A. McCammon,
         Computer Phys. Comm. 128, 377 (2000).


     9.  M. Valiev, E. J. Bylaska, A. Gramada, and J. H. Weare,
         Reviews in Modern Quantum Chemistry, pages 1684-1734
         (World Scientific, Singapore, 2002).


    10.  E. J. Bylaska, M. Valiev, R. Kawai, and J. H. Weare,
         Computer Phys. Comm. 143, 11 (2002).


    11.  M. Valiev and J. H. Weare,
         J. Phys. Chem. A, 103, 10588 (1999).



 Total times  cpu:       12.0s     wall:       12.0s
