 argument  1 = originalHF.nw
  NWChem w/ OpenMP: maximum threads =    4



============================== echo of input deck ==============================
start tce_hf_1.10016

echo
memory total 6 gb
print high

geometry units angstrom
symmetry c1
H  0.0000000  0.0000  1.10016
F  0.0000000  0.0000  0.00000
end


basis spherical
H library cc-pvdz
F library cc-pvdz
end

scf
thresh 1.0e-10
tol2e 1.0e-10
singlet
rhf
end

tce
2eorb
2emet 13
thresh 1.0d-8
ccsd
end

set tce:qducc T
set tce:nactv 5

task tce energy

================================================================================


                                         
                                         


              Northwest Computational Chemistry Package (NWChem) 6.8
              ------------------------------------------------------


                    Environmental Molecular Sciences Laboratory
                       Pacific Northwest National Laboratory
                                Richland, WA 99352

                              Copyright (c) 1994-2018
                       Pacific Northwest National Laboratory
                            Battelle Memorial Institute

             NWChem is an open-source computational chemistry package
                        distributed under the terms of the
                      Educational Community License (ECL) 2.0
             A copy of the license is included with this distribution
                              in the LICENSE.TXT file

                                  ACKNOWLEDGMENT
                                  --------------

            This software and its documentation were developed at the
            EMSL at Pacific Northwest National Laboratory, a multiprogram
            national laboratory, operated for the U.S. Department of Energy
            by Battelle under Contract Number DE-AC05-76RL01830. Support
            for this work was provided by the Department of Energy Office
            of Biological and Environmental Research, Office of Basic
            Energy Sciences, and the Office of Advanced Scientific Computing.


           Job information
           ---------------

    hostname        = WE27583
    program         = /Users/lamm799/nwchem/bin/MACX64/nwchem
    date            = Tue Jul 30 17:24:04 2019

    compiled        = Mon_Jul_15_13:12:43_2019
    source          = /Users/lamm799/nwchem
    nwchem branch   = Development
    nwchem revision = nwchem_on_git-975-g459e4567d
    ga revision     = 5.7.0
    use scalapack   = F
    input           = originalHF.nw
    prefix          = tce_hf_1.10016.
    data base       = ./tce_hf_1.10016.db
    status          = startup
    nproc           =        1
    time left       =     -1s



           Memory information
           ------------------

    heap     =  201326588 doubles =   1536.0 Mbytes
    stack    =  201326593 doubles =   1536.0 Mbytes
    global   =  402653184 doubles =   3072.0 Mbytes (distinct from heap & stack)
    total    =  805306365 doubles =   6144.0 Mbytes
    verify   = yes
    hardfail = no 


           Directory information
           ---------------------

  0 permanent = .
  0 scratch   = .




                                NWChem Input Module
                                -------------------



 Scaling coordinates for geometry "geometry" by  1.889725989
 (inverse scale =  0.529177249)

 Turning off AUTOSYM since
 SYMMETRY directive was detected!

     MOLECULAR POINT GROUP NUMBER =  1     SCHOENFLIES SYMBOL = C1        

                --------------- GROUP GENERATORS ---------------

                      1 GENERATORS USED TO FORM THE GROUP

                         PT fold Rotoinversion Operator
                     1.000000  0.000000  0.000000  0.000000
                     0.000000  1.000000  0.000000  0.000000
                     0.000000  0.000000  1.000000  0.000000


The   1 symmetry operators (excl. E) are as follows:



                    ---------- FULL LISTING OF GROUP ----------

                  MATRIX REPRESENTATIONS OF THE GROUP OPERATORS

     EXCLUDING THE IDENTITY OPERATOR THERE ARE  1 OPERATORS IN THIS GROUP

                         pt fold Rotoinversion Operator
                     1.000000  0.000000  0.000000  0.000000
                     0.000000  1.000000  0.000000  0.000000
                     0.000000  0.000000  1.000000  0.000000


                  <<< SYMMETRY OPERATION/ATOM MAPPING BUILT >>>
      Symmetry information
      --------------------

 Group name             C1        
 Group number              1
 Group order               1
 No. of unique centers     2



                  Character table for group C1      

                  1e     
        a          1.000

      Symmetry unique atoms

     1    2

      Mapping of centers


      Group operations



          ------
          auto-z
          ------
  no constraints, skipping    0.0000000000000000     
 Imposing constraints:   iter = 1  dqmax = 0.0D+00
  no constraints, skipping    0.0000000000000000     


                             Geometry "geometry" -> ""
                             -------------------------

 Output coordinates in angstroms (scale by  1.889725989 to convert to a.u.)

  No.       Tag          Charge          X              Y              Z
 ---- ---------------- ---------- -------------- -------------- --------------
    1 H                    1.0000     0.00000000     0.00000000     0.99014400
    2 F                    9.0000     0.00000000     0.00000000    -0.11001600

      Atomic Mass 
      ----------- 

      H                  1.007825
      F                 18.998400


 Effective nuclear repulsion energy (a.u.)       4.3290023642

            Nuclear Dipole moment (a.u.) 
            ----------------------------
        X                 Y               Z
 ---------------- ---------------- ----------------
     0.0000000000     0.0000000000     0.0000000000



                                Z-matrix (autoz)
                                -------- 

 Units are Angstrom for bonds and degrees for angles

      Type          Name      I     J     K     L     M      Value
      ----------- --------  ----- ----- ----- ----- ----- ----------
    1 Stretch                  1     2                       1.10016


            XYZ format geometry
            -------------------
     2
 geometry
 H                     0.00000000     0.00000000     0.99014400
 F                     0.00000000     0.00000000    -0.11001600

                      Basis "ao basis" -> "" (spherical)
                      -----
  H (Hydrogen)
  ------------
            Exponent  Coefficients 
       -------------- ---------------------------------------------------------
  1 S  1.30100000E+01  0.019685
  1 S  1.96200000E+00  0.137977
  1 S  4.44600000E-01  0.478148

  2 S  1.22000000E-01  1.000000

  3 P  7.27000000E-01  1.000000

  F (Fluorine)
  ------------
            Exponent  Coefficients 
       -------------- ---------------------------------------------------------
  1 S  1.47100000E+04  0.000721
  1 S  2.20700000E+03  0.005553
  1 S  5.02800000E+02  0.028267
  1 S  1.42600000E+02  0.106444
  1 S  4.64700000E+01  0.286814
  1 S  1.67000000E+01  0.448641
  1 S  6.35600000E+00  0.264761
  1 S  1.31600000E+00  0.015333

  2 S  1.47100000E+04 -0.000165
  2 S  2.20700000E+03 -0.001308
  2 S  5.02800000E+02 -0.006495
  2 S  1.42600000E+02 -0.026691
  2 S  4.64700000E+01 -0.073690
  2 S  1.67000000E+01 -0.170776
  2 S  6.35600000E+00 -0.112327
  2 S  1.31600000E+00  0.562814

  3 S  3.89700000E-01  1.000000

  4 P  2.26700000E+01  0.044878
  4 P  4.97700000E+00  0.235718
  4 P  1.34700000E+00  0.508521

  5 P  3.47100000E-01  1.000000

  6 D  1.64000000E+00  1.000000



 Summary of "ao basis" -> "" (spherical)
 ------------------------------------------------------------------------------
       Tag                 Description            Shells   Functions and Types
 ---------------- ------------------------------  ------  ---------------------
 H                          cc-pvdz                  3        5   2s1p
 F                          cc-pvdz                  6       14   3s2p1d



 Setting fock-build task_bf   :      -1
                    maxquartet:   10000
                    maxeri    :  129600
                    maxscr    :       0
                    intacc    : 0.0D+00
                    denscreen : T
                    dentol    : 1.0D-06

                                 NWChem SCF Module
                                 -----------------



  ao basis        = "ao basis"
  functions       =    19
  atoms           =     2
  closed shells   =     5
  open shells     =     0
  charge          =   0.00
  wavefunction    = RHF 
  input vectors   = atomic
  output vectors  = ./tce_hf_1.10016.movecs
  use symmetry    = F
  symmetry adapt  = F


 Summary of "ao basis" -> "ao basis" (spherical)
 ------------------------------------------------------------------------------
       Tag                 Description            Shells   Functions and Types
 ---------------- ------------------------------  ------  ---------------------
 H                          cc-pvdz                  3        5   2s1p
 F                          cc-pvdz                  6       14   3s2p1d




                         Geometry "geometry" -> "geometry"
                         ---------------------------------

 Output coordinates in angstroms (scale by  1.889725989 to convert to a.u.)

  No.       Tag          Charge          X              Y              Z
 ---- ---------------- ---------- -------------- -------------- --------------
    1 H                    1.0000     0.00000000     0.00000000     0.99014400
    2 F                    9.0000     0.00000000     0.00000000    -0.11001600

      Atomic Mass 
      ----------- 

      H                  1.007825
      F                 18.998400


 Effective nuclear repulsion energy (a.u.)       4.3290023642

            Nuclear Dipole moment (a.u.) 
            ----------------------------
        X                 Y               Z
 ---------------- ---------------- ----------------
     0.0000000000     0.0000000000     0.0000000000



                                Z-matrix (autoz)
                                -------- 

 Units are Angstrom for bonds and degrees for angles

      Type          Name      I     J     K     L     M      Value
      ----------- --------  ----- ----- ----- ----- ----- ----------
    1 Stretch                  1     2                       1.10016


                      Basis "ao basis" -> "ao basis" (spherical)
                      -----
  H (Hydrogen)
  ------------
            Exponent  Coefficients 
       -------------- ---------------------------------------------------------
  1 S  1.30100000E+01  0.019685
  1 S  1.96200000E+00  0.137977
  1 S  4.44600000E-01  0.478148

  2 S  1.22000000E-01  1.000000

  3 P  7.27000000E-01  1.000000

  F (Fluorine)
  ------------
            Exponent  Coefficients 
       -------------- ---------------------------------------------------------
  1 S  1.47100000E+04  0.000721
  1 S  2.20700000E+03  0.005553
  1 S  5.02800000E+02  0.028267
  1 S  1.42600000E+02  0.106444
  1 S  4.64700000E+01  0.286814
  1 S  1.67000000E+01  0.448641
  1 S  6.35600000E+00  0.264761
  1 S  1.31600000E+00  0.015333

  2 S  1.47100000E+04 -0.000165
  2 S  2.20700000E+03 -0.001308
  2 S  5.02800000E+02 -0.006495
  2 S  1.42600000E+02 -0.026691
  2 S  4.64700000E+01 -0.073690
  2 S  1.67000000E+01 -0.170776
  2 S  6.35600000E+00 -0.112327
  2 S  1.31600000E+00  0.562814

  3 S  3.89700000E-01  1.000000

  4 P  2.26700000E+01  0.044878
  4 P  4.97700000E+00  0.235718
  4 P  1.34700000E+00  0.508521

  5 P  3.47100000E-01  1.000000

  6 D  1.64000000E+00  1.000000



    Basis function labels
    ---------------------
       No.  Atm El Type
       ---  --- -- ----
        1    1 H  s          
        2    1 H  s          
        3    1 H  px         
        4    1 H  py         
        5    1 H  pz         
        6    2 F  s          
        7    2 F  s          
        8    2 F  s          
        9    2 F  px         
       10    2 F  py         
       11    2 F  pz         
       12    2 F  px         
       13    2 F  py         
       14    2 F  pz         
       15    2 F  d -2       
       16    2 F  d -1       
       17    2 F  d  0       
       18    2 F  d  1       
       19    2 F  d  2       

 Schwarz integral screening summary 
 ---------------------------------- 

        No. of atom pairs =       3
       No. of shell pairs =      45

 Atomic screening 

   value      no.     value      no.     value      no.     value      no.   
  -------- ------    -------- ------    -------- ------    -------- ------   
  0.00D+00      0    1.00D-13      0    1.00D-12      0    1.00D-11      0
  1.00D-10      0    1.00D-09      0    1.00D-08      0    1.00D-07      0
  1.00D-06      0    1.00D-05      0    1.00D-04      0    1.00D-03      0
  1.00D-02      0    1.00D-01      0    1.00D+00      3    1.00D+01      0


 Shell screening 

   value      no.     value      no.     value      no.     value      no.   
  -------- ------    -------- ------    -------- ------    -------- ------   
  0.00D+00      0    1.00D-13      0    1.00D-12      0    1.00D-11      0
  1.00D-10      0    1.00D-09      0    1.00D-08      0    1.00D-07      0
  1.00D-06      0    1.00D-05      0    1.00D-04      0    1.00D-03      0
  1.00D-02      0    1.00D-01     13    1.00D+00     32    1.00D+01      0



 Forming initial guess at       0.1s


      Superposition of Atomic Density Guess
      -------------------------------------

 Sum of atomic energies:         -99.88314519

      Non-variational initial energy
      ------------------------------

 Total energy =     -99.693400
 1-e energy   =    -148.210839
 2-e energy   =      44.188437
 HOMO         =      -0.610572
 LUMO         =       0.039384


 Setting fock-build task_bf   :      -1
                    maxquartet:   10000
                    maxeri    :  129600
                    maxscr    :       0
                    intacc    : 0.0D+00
                    denscreen : T
                    dentol    : 1.0D-06


 Wrote molecular orbitals to ./tce_hf_1.10016.movecs


 Starting SCF solution at       0.1s

 ready to solve ...                    0


 ----------------------------------------------
         Quadratically convergent ROHF

 Convergence threshold     :          1.000E-10
 Maximum no. of iterations :           30
 Final Fock-matrix accuracy:          1.000E-10
 ----------------------------------------------

   0: nuse=   1(   0.9) avail=   434875Mb (out of   434875Mb) on .

 #quartets = 1.035D+03 #integrals = 4.841D+03 #direct =  0.0% #cached =100.0%


 Integral file          = ./tce_hf_1.10016.aoints.0
 Record size in doubles =  65536        No. of integs per rec  =  43688
 Max. records in memory =      2        Max. records in file   = 826261
 No. of bits per label  =      8        No. of bits per value  =     64


 Wrote rohf: cfock to ./tce_hf_1.10016.cfock


              iter       energy          gnorm     gmax       time
             ----- ------------------- --------- --------- --------
                 1      -99.9507465079  8.00D-01  3.64D-01      0.1

            ----- linear solve (tol: 1.0E-02 prod-acc: 9.6E-09) -----

               iter nbas    rnorm     rnorm-scal   ratio     time
               ---- ---- ----------- ----------- --------- -------
 rohf_wrap: in g_x =    1              0.80046839
 rohf_wrap: out g_x =    1              0.13355960
                  1    1  5.7773E-16  7.2174E-16    0.0000     0.1

                              ----- Line search ------

        step       energy         lsg     num-lsg   num-lsh   lsrat    time
      ------- ---------------- --------- --------- --------- ------- --------
       0.0000     -99.95074651 -9.29D-02  0.00D+00  0.00D+00 0.0D+00      0.1

 Wrote rohf: cfock to ./tce_hf_1.10016.cfock

       1.0000     -99.97793142  4.10D-02  3.98D-02  1.34D-01 4.4D-01      0.1

 Wrote rohf: cfock to ./tce_hf_1.10016.cfock

       0.6938     -99.98395937 -1.48D-03 -1.56D-03  1.39D-01 1.6D-02      0.1

              iter       energy          gnorm     gmax       time
             ----- ------------------- --------- --------- --------
                 2      -99.9839593685  2.09D-01  8.22D-02      0.1

            ----- linear solve (tol: 1.0E-01 prod-acc: 2.5E-08) -----

               iter nbas    rnorm     rnorm-scal   ratio     time
               ---- ---- ----------- ----------- --------- -------
 rohf_wrap: in g_x =    1              0.20902142
 rohf_wrap: out g_x =    1              0.02748765
                  1    1  6.8140E-02  3.2600E-01    0.0000     0.2
 rohf_wrap: in g_x =    1              0.06814033
 rohf_wrap: out g_x =    1              0.01387896
                  2    2  2.3239E-02  1.1118E-01    0.3410     0.2
 rohf_wrap: in g_x =    1              0.02323921
 rohf_wrap: out g_x =    1              0.00311948
                  3    3  4.7511E-03  2.2730E-02    0.2044     0.2

                              ----- Line search ------

        step       energy         lsg     num-lsg   num-lsh   lsrat    time
      ------- ---------------- --------- --------- --------- ------- --------
       0.0000     -99.98395937 -6.76D-03  0.00D+00  0.00D+00 0.0D+00      0.2

 Wrote rohf: cfock to ./tce_hf_1.10016.cfock

       1.0000     -99.98735419 -2.08D-05 -2.32D-05  6.74D-03 3.1D-03      0.2

              iter       energy          gnorm     gmax       time
             ----- ------------------- --------- --------- --------
                 3      -99.9873541883  4.74D-03  2.03D-03      0.2

            ----- linear solve (tol: 4.7E-03 prod-acc: 2.7E-11) -----

               iter nbas    rnorm     rnorm-scal   ratio     time
               ---- ---- ----------- ----------- --------- -------
 rohf_wrap: in g_x =    1              0.00474117
 rohf_wrap: out g_x =    1              0.00063244
                  1    1  1.2642E-03  2.6664E-01    0.0000     0.2
 rohf_wrap: in g_x =    1              0.00126418
 rohf_wrap: out g_x =    1              0.00026514
                  2    2  4.3695E-04  9.2161E-02    0.3456     0.2
 rohf_wrap: in g_x =    1              0.00043695
 rohf_wrap: out g_x =    1              0.00007860
                  3    3  9.1929E-05  1.9390E-02    0.2104     0.2
 rohf_wrap: in g_x =    1              0.00009193
 rohf_wrap: out g_x =    1              0.00001482
                  4    4  1.4432E-05  3.0439E-03    0.1570     0.2

                              ----- Line search ------

        step       energy         lsg     num-lsg   num-lsh   lsrat    time
      ------- ---------------- --------- --------- --------- ------- --------
       0.0000     -99.98735419 -3.30D-06  0.00D+00  0.00D+00 0.0D+00      0.2

 Wrote rohf: cfock to ./tce_hf_1.10016.cfock

       1.0000     -99.98735584  3.35D-10  4.13D-10  3.30D-06 1.0D-04      0.2

              iter       energy          gnorm     gmax       time
             ----- ------------------- --------- --------- --------
                 4      -99.9873558393  1.46D-05  4.70D-06      0.2

            ----- linear solve (tol: 1.5E-05 prod-acc: 2.5E-16) -----

               iter nbas    rnorm     rnorm-scal   ratio     time
               ---- ---- ----------- ----------- --------- -------
 rohf_wrap: in g_x =    1              0.00001458
 rohf_wrap: out g_x =    1              0.00000179
                  1    1  3.1192E-06  2.1393E-01    0.0000     0.2
 rohf_wrap: in g_x =    1              0.00000312
 rohf_wrap: out g_x =    1              0.00000038
                  2    2  8.4326E-07  5.7835E-02    0.2703     0.2
 rohf_wrap: in g_x =    1              0.00000084
 rohf_wrap: out g_x =    1              0.00000011
                  3    3  1.8751E-07  1.2861E-02    0.2224     0.2
 rohf_wrap: in g_x =    1              0.00000019
 rohf_wrap: out g_x =    1              0.00000002
                  4    4  2.8423E-08  1.9494E-03    0.1516     0.2
 rohf_wrap: in g_x =    1              0.00000003
 rohf_wrap: out g_x =    1              0.00000001
                  5    5  3.9090E-09  2.6810E-04    0.1375     0.2
 rohf_wrap: in g_x =    1              0.00000000
 rohf_wrap: out g_x =    1              0.00000000
                  6    6  4.5029E-10  3.0884E-05    0.1152     0.2
 rohf_wrap: in g_x =    1              0.00000000
 rohf_wrap: out g_x =    1              0.00000000
                  7    7  2.8757E-11  1.9723E-06    0.0639     0.2

                              ----- Line search ------

        step       energy         lsg     num-lsg   num-lsh   lsrat    time
      ------- ---------------- --------- --------- --------- ------- --------
       0.0000     -99.98735584 -2.76D-11  0.00D+00  0.00D+00 0.0D+00      0.2

 Wrote rohf: cfock to ./tce_hf_1.10016.cfock

       1.0000     -99.98735584  1.39D-18  1.25D-14  2.76D-11 5.0D-08      0.2

              iter       energy          gnorm     gmax       time
             ----- ------------------- --------- --------- --------
                 5      -99.9873558393  3.04D-11  1.57D-11      0.2

 Wrote molecular orbitals to ./tce_hf_1.10016.movecs



       Final RHF  results 
       ------------------ 

         Total SCF energy =    -99.987355839337
      One-electron energy =   -149.194605214637
      Two-electron energy =     44.878247011101
 Nuclear repulsion energy =      4.329002364199

        Time for solution =      0.1s


             Final eigenvalues
             -----------------

              1      
    1  -26.2801
    2   -1.5336
    3   -0.6785
    4   -0.6134
    5   -0.6134
    6    0.1371
    7    0.6736
    8    1.3528
    9    1.3528
   10    1.4893
   11    1.6283
   12    1.6283
   13    2.0210
   14    2.2270
   15    4.0203
   16    4.0203
   17    4.1394
   18    4.1394
   19    4.7838

                       ROHF Final Molecular Orbital Analysis
                       -------------------------------------

 Vector    1  Occ=2.000000D+00  E=-2.628006D+01
              MO Center= -3.5D-20,  1.1D-19, -1.1D-01, r^2= 1.2D-02
   Bfn.  Coefficient  Atom+Function         Bfn.  Coefficient  Atom+Function  
  ----- ------------  ---------------      ----- ------------  ---------------
     6      1.000609  2 F  s          

 Vector    2  Occ=2.000000D+00  E=-1.533620D+00
              MO Center= -1.6D-18, -3.6D-17, -3.7D-02, r^2= 3.7D-01
   Bfn.  Coefficient  Atom+Function         Bfn.  Coefficient  Atom+Function  
  ----- ------------  ---------------      ----- ------------  ---------------
     8      0.537683  2 F  s                  7      0.488186  2 F  s          

 Vector    3  Occ=2.000000D+00  E=-6.785423D-01
              MO Center=  5.2D-17,  1.5D-17,  1.0D-01, r^2= 6.7D-01
   Bfn.  Coefficient  Atom+Function         Bfn.  Coefficient  Atom+Function  
  ----- ------------  ---------------      ----- ------------  ---------------
    11      0.540562  2 F  pz                 1      0.344434  1 H  s          
    14      0.344039  2 F  pz                 8     -0.198245  2 F  s          

 Vector    4  Occ=2.000000D+00  E=-6.134177D-01
              MO Center=  2.6D-17,  3.1D-17, -9.8D-02, r^2= 4.4D-01
   Bfn.  Coefficient  Atom+Function         Bfn.  Coefficient  Atom+Function  
  ----- ------------  ---------------      ----- ------------  ---------------
     9      0.665846  2 F  px                12      0.480073  2 F  px         

 Vector    5  Occ=2.000000D+00  E=-6.134177D-01
              MO Center=  3.8D-17,  6.1D-17, -9.8D-02, r^2= 4.4D-01
   Bfn.  Coefficient  Atom+Function         Bfn.  Coefficient  Atom+Function  
  ----- ------------  ---------------      ----- ------------  ---------------
    10      0.665846  2 F  py                13      0.480073  2 F  py         

 Vector    6  Occ=0.000000D+00  E= 1.370715D-01
              MO Center= -2.0D-17, -1.9D-18,  1.0D+00, r^2= 1.9D+00
   Bfn.  Coefficient  Atom+Function         Bfn.  Coefficient  Atom+Function  
  ----- ------------  ---------------      ----- ------------  ---------------
     2      1.080595  1 H  s                  8     -0.519416  2 F  s          
    14     -0.384469  2 F  pz                11     -0.288221  2 F  pz         
     1      0.184068  1 H  s          

 Vector    7  Occ=0.000000D+00  E= 6.736110D-01
              MO Center= -3.2D-19, -7.9D-17,  9.7D-01, r^2= 1.4D+00
   Bfn.  Coefficient  Atom+Function         Bfn.  Coefficient  Atom+Function  
  ----- ------------  ---------------      ----- ------------  ---------------
     1      1.306951  1 H  s                  2     -1.090077  1 H  s          
    11     -0.320678  2 F  pz                 8      0.217567  2 F  s          
     5      0.170909  1 H  pz         

 Vector    8  Occ=0.000000D+00  E= 1.352834D+00
              MO Center=  4.7D-17,  1.0D-18,  4.7D-01, r^2= 8.8D-01
   Bfn.  Coefficient  Atom+Function         Bfn.  Coefficient  Atom+Function  
  ----- ------------  ---------------      ----- ------------  ---------------
     9      0.709515  2 F  px                 3     -0.624805  1 H  px         
    12     -0.605550  2 F  px         

 Vector    9  Occ=0.000000D+00  E= 1.352834D+00
              MO Center= -3.0D-17,  5.5D-16,  4.7D-01, r^2= 8.8D-01
   Bfn.  Coefficient  Atom+Function         Bfn.  Coefficient  Atom+Function  
  ----- ------------  ---------------      ----- ------------  ---------------
    10      0.709515  2 F  py                 4     -0.624805  1 H  py         
    13     -0.605550  2 F  py         

 Vector   10  Occ=0.000000D+00  E= 1.489251D+00
              MO Center= -1.9D-17, -3.5D-16, -5.2D-01, r^2= 8.6D-01
   Bfn.  Coefficient  Atom+Function         Bfn.  Coefficient  Atom+Function  
  ----- ------------  ---------------      ----- ------------  ---------------
    14      1.406382  2 F  pz                11     -0.714345  2 F  pz         
     1     -0.702383  1 H  s                  5      0.533644  1 H  pz         
     7      0.376272  2 F  s          

 Vector   11  Occ=0.000000D+00  E= 1.628343D+00
              MO Center= -3.1D-17, -1.4D-17,  3.3D-01, r^2= 1.2D+00
   Bfn.  Coefficient  Atom+Function         Bfn.  Coefficient  Atom+Function  
  ----- ------------  ---------------      ----- ------------  ---------------
    12      0.917680  2 F  px                 3     -0.825039  1 H  px         
     9     -0.610418  2 F  px         

 Vector   12  Occ=0.000000D+00  E= 1.628343D+00
              MO Center=  6.2D-18,  5.0D-17,  3.3D-01, r^2= 1.2D+00
   Bfn.  Coefficient  Atom+Function         Bfn.  Coefficient  Atom+Function  
  ----- ------------  ---------------      ----- ------------  ---------------
    13      0.917680  2 F  py                 4     -0.825039  1 H  py         
    10     -0.610418  2 F  py         

 Vector   13  Occ=0.000000D+00  E= 2.020975D+00
              MO Center=  5.1D-17,  9.2D-17,  6.6D-01, r^2= 6.4D-01
   Bfn.  Coefficient  Atom+Function         Bfn.  Coefficient  Atom+Function  
  ----- ------------  ---------------      ----- ------------  ---------------
     7      0.923351  2 F  s                  5      0.763802  1 H  pz         
     8     -0.626946  2 F  s                 11      0.600193  2 F  pz         
     6      0.355284  2 F  s                 14     -0.320368  2 F  pz         

 Vector   14  Occ=0.000000D+00  E= 2.227032D+00
              MO Center= -4.3D-17, -1.3D-16,  3.0D-01, r^2= 1.1D+00
   Bfn.  Coefficient  Atom+Function         Bfn.  Coefficient  Atom+Function  
  ----- ------------  ---------------      ----- ------------  ---------------
     8      2.166559  2 F  s                  7     -1.357554  2 F  s          
     5      1.000298  1 H  pz                14      0.720237  2 F  pz         
     6     -0.612073  2 F  s                  1     -0.588194  1 H  s          
     2     -0.557185  1 H  s                 11      0.170036  2 F  pz         

 Vector   15  Occ=0.000000D+00  E= 4.020327D+00
              MO Center= -9.2D-17, -1.2D-17, -1.1D-01, r^2= 3.0D-01
   Bfn.  Coefficient  Atom+Function         Bfn.  Coefficient  Atom+Function  
  ----- ------------  ---------------      ----- ------------  ---------------
    19      0.999957  2 F  d  2       

 Vector   16  Occ=0.000000D+00  E= 4.020327D+00
              MO Center=  8.7D-18, -6.8D-17, -1.1D-01, r^2= 3.0D-01
   Bfn.  Coefficient  Atom+Function         Bfn.  Coefficient  Atom+Function  
  ----- ------------  ---------------      ----- ------------  ---------------
    15      0.999957  2 F  d -2       

 Vector   17  Occ=0.000000D+00  E= 4.139359D+00
              MO Center=  8.7D-17, -5.5D-17, -7.0D-02, r^2= 3.6D-01
   Bfn.  Coefficient  Atom+Function         Bfn.  Coefficient  Atom+Function  
  ----- ------------  ---------------      ----- ------------  ---------------
    18      0.873508  2 F  d  1              16     -0.506266  2 F  d -1       
     3      0.219860  1 H  px         

 Vector   18  Occ=0.000000D+00  E= 4.139359D+00
              MO Center= -6.8D-17,  5.2D-17, -7.0D-02, r^2= 3.6D-01
   Bfn.  Coefficient  Atom+Function         Bfn.  Coefficient  Atom+Function  
  ----- ------------  ---------------      ----- ------------  ---------------
    16      0.873508  2 F  d -1              18      0.506266  2 F  d  1       
     4     -0.219860  1 H  py         

 Vector   19  Occ=0.000000D+00  E= 4.783778D+00
              MO Center= -1.7D-17,  2.1D-18,  3.7D-03, r^2= 5.3D-01
   Bfn.  Coefficient  Atom+Function         Bfn.  Coefficient  Atom+Function  
  ----- ------------  ---------------      ----- ------------  ---------------
    17      1.096162  2 F  d  0               8      0.981552  2 F  s          
     1     -0.754251  1 H  s                  5      0.750393  1 H  pz         
    14      0.701781  2 F  pz                 7     -0.392362  2 F  s          
     6     -0.205378  2 F  s          


 center of mass
 --------------
 x =   0.00000000 y =   0.00000000 z =  -0.10316924

 moments of inertia (a.u.)
 ------------------
           4.136627154979           0.000000000000           0.000000000000
           0.000000000000           4.136627154979           0.000000000000
           0.000000000000           0.000000000000           0.000000000000

  Mulliken analysis of the total density
  --------------------------------------

   Bfn.    Population  Atom+Function
   ---------------------------------
     1      0.499864    1 H  s          
     2      0.081409    1 H  s          
     3      0.012004    1 H  px         
     4      0.012004    1 H  py         
     5      0.039681    1 H  pz         
     6      2.001192    2 F  s          
     7      0.900047    2 F  s          
     8      1.032458    2 F  s          
     9      1.204846    2 F  px         
    10      1.204846    2 F  py         
    11      0.856231    2 F  pz         
    12      0.782879    2 F  px         
    13      0.782879    2 F  py         
    14      0.586714    2 F  pz         
    15      0.000000    2 F  d -2       
    16      0.000272    2 F  d -1       
    17      0.002403    2 F  d  0       
    18      0.000272    2 F  d  1       
    19      0.000000    2 F  d  2       

    Atom       Charge   Shell Charges
 -----------   ------   -------------------------------------------------------
    1 H    1     0.64   0.50  0.08  0.06
    2 F    9     9.36   2.00  0.90  1.03  3.27  2.15  0.00

       Multipole analysis of the density wrt the origin
       ------------------------------------------------

     L   x y z        total         open         nuclear
     -   - - -        -----         ----         -------
     0   0 0 0     -0.000000      0.000000     10.000000

     1   1 0 0     -0.000000      0.000000      0.000000
     1   0 1 0     -0.000000      0.000000      0.000000
     1   0 0 1      0.908008      0.000000      0.000000

     2   2 0 0     -4.127477      0.000000      0.000000
     2   1 1 0     -0.000000      0.000000      0.000000
     2   1 0 1     -0.000000      0.000000      0.000000
     2   0 2 0     -4.127477      0.000000      0.000000
     2   0 1 1     -0.000000      0.000000      0.000000
     2   0 0 2     -2.037425      0.000000      3.890020


 Wrote molecular orbitals to ./tce_hf_1.10016.movecs


 Parallel integral file used       1 records with       0 large values


 Read molecular orbitals from ./tce_hf_1.10016.movecs


 Schwarz integral screening summary 
 ---------------------------------- 

        No. of atom pairs =       3
       No. of shell pairs =      45

 Atomic screening 

   value      no.     value      no.     value      no.     value      no.   
  -------- ------    -------- ------    -------- ------    -------- ------   
  0.00D+00      0    1.00D-13      0    1.00D-12      0    1.00D-11      0
  1.00D-10      0    1.00D-09      0    1.00D-08      0    1.00D-07      0
  1.00D-06      0    1.00D-05      0    1.00D-04      0    1.00D-03      0
  1.00D-02      0    1.00D-01      0    1.00D+00      3    1.00D+01      0


 Shell screening 

   value      no.     value      no.     value      no.     value      no.   
  -------- ------    -------- ------    -------- ------    -------- ------   
  0.00D+00      0    1.00D-13      0    1.00D-12      0    1.00D-11      0
  1.00D-10      0    1.00D-09      0    1.00D-08      0    1.00D-07      0
  1.00D-06      0    1.00D-05      0    1.00D-04      0    1.00D-03      0
  1.00D-02      0    1.00D-01     13    1.00D+00     32    1.00D+01      0


                   NWChem Extensible Many-Electron Theory Module
                   ---------------------------------------------

              ======================================================
                   This portion of the program was automatically
                  generated by a Tensor Contraction Engine (TCE).
                  The development of this portion of the program
                 and TCE was supported by US Department of Energy,
                Office of Science, Office of Basic Energy Science.
                      TCE is a product of Battelle and PNNL.
              Please cite: S.Hirata, J.Phys.Chem.A 107, 9887 (2003).
              ======================================================

            General Information
            -------------------
      Number of processors :     1
         Wavefunction type : Restricted Hartree-Fock
          No. of electrons :    10
           Alpha electrons :     5
            Beta electrons :     5
           No. of orbitals :    38
            Alpha orbitals :    19
             Beta orbitals :    19
        Alpha frozen cores :     0
         Beta frozen cores :     0
     Alpha frozen virtuals :     0
      Beta frozen virtuals :     0
         Spin multiplicity : singlet 
    Number of AO functions :    19
       Number of AO shells :     9
        Use of symmetry is : off
      Symmetry adaption is : off
         Schwarz screening : 0.10D-09

          Correlation Information
          -----------------------
          Calculation type : Coupled-cluster singles & doubles                           
   Perturbative correction : none                                                        
            Max iterations :      100
        Residual threshold : 0.10D-07
     T(0) DIIS level shift : 0.00D+00
     L(0) DIIS level shift : 0.00D+00
     T(1) DIIS level shift : 0.00D+00
     L(1) DIIS level shift : 0.00D+00
     T(R) DIIS level shift : 0.00D+00
     T(I) DIIS level shift : 0.00D+00
   CC-T/L Amplitude update :  5-th order DIIS
                I/O scheme : Global Array Library
        L-threshold :  0.10D-07
        EOM-threshold :  0.10D-07
 no EOMCCSD initial starts read in
 TCE RESTART OPTIONS
 READ_INT:   F
 WRITE_INT:  F
 READ_TA:    F
 WRITE_TA:   F
 READ_XA:    F
 WRITE_XA:   F
 READ_IN3:   F
 WRITE_IN3:  F
 SLICE:      F
 D4D5:       F
 quantumc:   F
 qrotation:  F
 qducc:      T
 nacto:                         0
 nrotv:                         0
 nrot:                          0

            Memory Information
            ------------------
          Available GA space size is     402652823 doubles
          Available MA space size is     402651564 doubles

 Maximum block size        32 doubles

 tile_dim =     14

 Block   Spin    Irrep     Size     Offset   Alpha
 -------------------------------------------------
   1    alpha     a      5 doubles       0       1
   2    beta      a      5 doubles       5       1
   3    alpha     a     14 doubles      10       3
   4    beta      a     14 doubles      24       3

 Global array virtual files algorithm will be used

 Parallel file system coherency ......... OK

 Setting fock-build task_bf   :      -1
                    maxquartet:   10000
                    maxeri    :  129600
                    maxscr    :       0
                    intacc    : 0.0D+00
                    denscreen : T
                    dentol    : 1.0D-06

   0: nuse=   1(   0.9) avail=   434875Mb (out of   434875Mb) on .

 #quartets = 1.035D+03 #integrals = 4.841D+03 #direct =  0.0% #cached =100.0%


 Integral file          = ./tce_hf_1.10016.aoints.0
 Record size in doubles =  65536        No. of integs per rec  =  43688
 Max. records in memory =      2        Max. records in file   = 826261
 No. of bits per label  =      8        No. of bits per value  =     64


 Fock matrix recomputed
 1-e file size   =              361
 1-e file name   = ./tce_hf_1.10016.f1
 Cpu & wall time / sec            0.1            0.1
 4-electron integrals stored in orbital form

 v2    file size   =            64311
 4-index algorithm nr.  13 is used
 imaxsize =       30
 imaxsize ichop =        0
 Cpu & wall time / sec            0.1            0.1
 T1-number-of-tasks                    1

 t1 file size   =               70
 t1 file name   = ./tce_hf_1.10016.t1
 t1 file handle =       -998
 T2-number-of-boxes                    2

 t2 file size   =             9800
 t2 file name   = ./tce_hf_1.10016.t2
 t2 file handle =       -996

 CCSD iterations
 -----------------------------------------------------------------
 Iter          Residuum       Correlation     Cpu    Wall    V2*C2
 -----------------------------------------------------------------
    1   0.1094891646370  -0.2113083439559     0.0     0.0     0.0
    2   0.0302199117017  -0.2124362753820     0.0     0.0     0.0
    3   0.0113124209572  -0.2152290208414     0.0     0.0     0.0
    4   0.0048177967211  -0.2158535293143     0.0     0.0     0.0
    5   0.0021088767303  -0.2161436476570     0.0     0.0     0.0
 MICROCYCLE DIIS UPDATE:                    5                    5
    6   0.0003209516214  -0.2163187028246     0.0     0.0     0.0
    7   0.0001808126358  -0.2163384172446     0.0     0.0     0.0
    8   0.0000745381578  -0.2163419044004     0.0     0.0     0.0
    9   0.0000428798882  -0.2163425354211     0.1     0.1     0.0
   10   0.0000212687617  -0.2163434543970     0.0     0.0     0.0
 MICROCYCLE DIIS UPDATE:                   10                    5
   11   0.0000014307649  -0.2163442620814     0.0     0.0     0.0
   12   0.0000003383115  -0.2163442993029     0.0     0.0     0.0
   13   0.0000001105500  -0.2163443238274     0.1     0.1     0.0
   14   0.0000000405421  -0.2163443284818     0.1     0.1     0.0
   15   0.0000000153068  -0.2163443303967     0.0     0.0     0.0
 MICROCYCLE DIIS UPDATE:                   15                    5
   16   0.0000000021610  -0.2163443313498     0.0     0.0     0.0
 -----------------------------------------------------------------
 Iterations converged
 CCSD correlation energy / hartree =        -0.216344331349835
 CCSD total energy / hartree       =      -100.203700170686815

 Singles contributions

 Doubles contributions
 Ground state specification:
 exp(T)|Ref>~(1+T)|Ref>
 ------- a(p)+/a(q) strings ----------

 singles norm

 doubles norm

 Reference string
   1.0000000000000000      :(1a)+ (2a)+ (3a)+ (4a)+ (5a)+ (1b)+ (2b)+ (3b)+ (4b)+ (5b)+ |0>

 Singles strings

 Doubles strings
 -------------------------------------
 enrep_tce =    4.3290023641991011     
  EHF(total)         =       -99.98735584
  Shift (HFtot-HFA)  =         0.00000000
 ALL OCCUPIED ORBITALS ARE ACTIVE IN DUCC --> NO SHIFT
 Number of active orbitals                   10
 Number of active alpha electrons                    5
 Number of active beta electrons                    5
  nos                    10
  nvs                    28
 noas                     5
 nobs                     5
 nvas                    14
 nvbs                    14
 nactv                     5
 From DUCC CCSD corr. ene. -0.21634433134978612     
 From DUCC CCSD corr. ene.-e-part  0.14932353639824811     
 begin_one_electron_integrals
    1    1       -40.8979350780
    1    2         0.7434224322
    1    3        -0.1284761309
    1    6        -0.1513568160
    1    7        -0.0573673599
    1   10         0.2358096829
    2    1         0.7434224322
    2    2        -9.2762441842
    2    3         0.3407531534
    2    6         0.8472901017
    2    7         0.2894344342
    2   10        -0.6566178980
    3    1        -0.1284761309
    3    2         0.3407531534
    3    3        -7.6213545793
    3    6         1.3768408922
    3    7         1.0119521667
    3   10         1.7131330050
    4    4        -8.4141264055
    4    8        -1.9166356403
    4    9         0.0340628810
    5    5        -8.4141264055
    5    8        -0.0340628810
    5    9        -1.9166356403
    6    1        -0.1513568160
    6    2         0.8472901017
    6    3         1.3768408922
    6    6        -4.0127145705
    6    7        -1.3184189466
    6   10        -0.5630189217
    7    1        -0.0573673599
    7    2         0.2894344342
    7    3         1.0119521667
    7    6        -1.3184189466
    7    7        -3.8892303699
    7   10        -0.5526954273
    8    4        -1.9166356403
    8    5        -0.0340628810
    8    8        -4.8970065561
    9    4         0.0340628810
    9    5        -1.9166356403
    9    9        -4.8970065561
   10    1         0.2358096829
   10    2        -0.6566178980
   10    3         1.7131330050
   10    6        -0.5630189217
   10    7        -0.5526954273
   10   10        -5.0668696590
 end_one_electron_integrals
 begin_two_electron_integrals
    1    1    1    1        5.3562718114
    2    1    1    1       -0.5289490755
    2    2    1    1        1.2549273072
    2    1    2    1        0.0832202940
    2    2    2    1       -0.0225614380
    2    2    2    2        0.8725891817
    3    1    1    1        0.0947547555
    3    2    1    1       -0.0928920903
    3    3    1    1        1.0315957411
    3    1    2    1       -0.0136864312
    3    1    2    2        0.0085244640
    3    2    2    1        0.0054682706
    3    2    2    2       -0.0180607594
    3    3    2    1       -0.0119807545
    3    3    2    2        0.7588324099
    3    1    3    1        0.0282182602
    3    2    3    1        0.0280355105
    3    2    3    2        0.1494233541
    3    3    3    1       -0.0032200937
    3    3    3    2       -0.0241879591
    3    3    3    3        0.7340493332
    4    4    1    1        1.2230580489
    4    4    2    1       -0.0158501681
    4    4    2    2        0.8467902498
    4    4    3    1        0.0031924289
    4    4    3    2       -0.0436697088
    4    4    3    3        0.7138107280
    4    1    4    1        0.0370016962
    4    2    4    1        0.0390061901
    4    2    4    2        0.1616973533
    4    3    4    1       -0.0066563775
    4    3    4    2       -0.0218498807
    4    3    4    3        0.0354534246
    4    4    4    4        0.8825463150
    5    5    1    1        1.2230580489
    5    5    2    1       -0.0158501681
    5    5    2    2        0.8467902498
    5    5    3    1        0.0031924289
    5    5    3    2       -0.0436697088
    5    5    3    3        0.7138107280
    5    5    4    4        0.8004222416
    5    1    5    1        0.0370016962
    5    2    5    1        0.0390061901
    5    2    5    2        0.1616973533
    5    3    5    1       -0.0066563775
    5    3    5    2       -0.0218498807
    5    3    5    3        0.0354534246
    5    4    5    4        0.0391061785
    5    5    5    5        0.8825463150
    6    1    1    1        0.1156873500
    6    2    1    1       -0.1672554448
    6    3    1    1       -0.2538236470
    6    6    1    1        0.4968968872
    6    1    2    1       -0.0198867855
    6    1    2    2        0.0022034330
    6    2    2    1        0.0038592177
    6    2    2    2       -0.0949570449
    6    3    2    1        0.0036592696
    6    3    2    2       -0.1455538507
    6    6    2    1       -0.0034849235
    6    6    2    2        0.4244636406
    6    1    3    1       -0.0103796058
    6    1    3    2       -0.0160858390
    6    1    3    3        0.0050834094
    6    2    3    1       -0.0139443846
    6    2    3    2       -0.0426134365
    6    2    3    3       -0.0501813128
    6    3    3    1       -0.0013873050
    6    3    3    2        0.0327413685
    6    3    3    3       -0.1045148512
    6    6    3    1        0.0079250975
    6    6    3    2        0.0487309256
    6    6    3    3        0.4289960033
    6    1    4    4        0.0024054325
    6    2    4    4       -0.0861333719
    6    3    4    4       -0.1354827074
    6    4    4    1       -0.0069683198
    6    4    4    2       -0.0213992250
    6    4    4    3       -0.0103490330
    6    6    4    4        0.4022493643
    6    1    5    5        0.0024054325
    6    2    5    5       -0.0861333719
    6    3    5    5       -0.1354827074
    6    5    5    1       -0.0069683198
    6    5    5    2       -0.0213992250
    6    5    5    3       -0.0103490330
    6    6    5    5        0.4022493643
    6    1    6    1        0.0117859054
    6    2    6    1        0.0062404560
    6    2    6    2        0.0455476793
    6    3    6    1       -0.0001480491
    6    3    6    2        0.0307872686
    6    3    6    3        0.0790732446
    6    4    6    4        0.0165604861
    6    5    6    5        0.0165604861
    6    6    6    1       -0.0028782965
    6    6    6    2       -0.0227084746
    6    6    6    3        0.0080413509
    6    6    6    6        0.3967191877
    7    1    1    1        0.0436131935
    7    2    1    1       -0.0643567924
    7    3    1    1       -0.2213327449
    7    6    1    1        0.2043089818
    7    7    1    1        0.5207006295
    7    1    2    1       -0.0080507843
    7    1    2    2       -0.0007203561
    7    2    2    1        0.0012731271
    7    2    2    2       -0.0311763805
    7    3    2    1        0.0052022586
    7    3    2    2       -0.0940339999
    7    6    2    1       -0.0032072102
    7    6    2    2        0.1368236265
    7    7    2    1       -0.0029514176
    7    7    2    2        0.4672135688
    7    1    3    1       -0.0132484764
    7    1    3    2       -0.0157915604
    7    1    3    3        0.0043836603
    7    2    3    1       -0.0114866823
    7    2    3    2       -0.0265171658
    7    2    3    3        0.0107244642
    7    3    3    1        0.0038548647
    7    3    3    2        0.0653511908
    7    3    3    3       -0.0458325365
    7    6    3    1        0.0040733107
    7    6    3    2        0.0219523368
    7    6    3    3        0.1440309130
    7    7    3    1        0.0060109481
    7    7    3    2        0.0777343720
    7    7    3    3        0.5146000739
    7    1    4    4        0.0004994552
    7    2    4    4       -0.0335783083
    7    3    4    4       -0.0971850748
    7    4    4    1       -0.0046450387
    7    4    4    2       -0.0221946589
    7    4    4    3       -0.0094660754
    7    6    4    4        0.1200153792
    7    7    4    4        0.4316899725
    7    1    5    5        0.0004994552
    7    2    5    5       -0.0335783083
    7    3    5    5       -0.0971850748
    7    5    5    1       -0.0046450387
    7    5    5    2       -0.0221946589
    7    5    5    3       -0.0094660754
    7    6    5    5        0.1200153792
    7    7    5    5        0.4316899725
    7    1    6    1        0.0094491151
    7    1    6    2        0.0069211093
    7    1    6    3        0.0000497266
    7    1    6    6       -0.0033543706
    7    2    6    1        0.0058023586
    7    2    6    2        0.0304677926
    7    2    6    3        0.0185700495
    7    2    6    6        0.0024958122
    7    3    6    1       -0.0033047510
    7    3    6    2        0.0187887972
    7    3    6    3        0.0780445771
    7    3    6    6        0.0308993957
    7    4    6    4        0.0106121458
    7    5    6    5        0.0106121458
    7    6    6    1       -0.0010934000
    7    6    6    2       -0.0157158244
    7    6    6    3       -0.0095842585
    7    6    6    6        0.0728975289
    7    7    6    1       -0.0020306156
    7    7    6    2       -0.0132332770
    7    7    6    3        0.0362278274
    7    7    6    6        0.4374454526
    7    1    7    1        0.0088216924
    7    2    7    1        0.0061729688
    7    2    7    2        0.0316856099
    7    3    7    1       -0.0029318671
    7    3    7    2        0.0241896622
    7    3    7    3        0.1125299316
    7    4    7    4        0.0121311097
    7    5    7    5        0.0121311097
    7    6    7    1       -0.0014458121
    7    6    7    2        0.0092057316
    7    6    7    3        0.0274187227
    7    6    7    6        0.0733587171
    7    7    7    1       -0.0023113751
    7    7    7    2        0.0363191465
    7    7    7    3        0.1151972227
    7    7    7    6        0.1437760325
    7    7    7    7        0.6158991324
    8    4    1    1        0.4370200864
    8    5    1    1        0.0077668196
    8    8    1    1        0.8392578846
    8    4    2    1       -0.0126713610
    8    4    2    2        0.1770101689
    8    5    2    1       -0.0002251983
    8    5    2    2        0.0031458647
    8    8    2    1       -0.0124655356
    8    8    2    2        0.6174411543
    8    4    3    1       -0.0006384044
    8    4    3    2       -0.0419304234
    8    4    3    3        0.1215772829
    8    5    3    1       -0.0000113459
    8    5    3    2       -0.0007451969
    8    5    3    3        0.0021606989
    8    8    3    1        0.0049602389
    8    8    3    2        0.0382380221
    8    8    3    3        0.5924311719
    8    1    4    1        0.0352328207
    8    1    4    2        0.0332960879
    8    1    4    3       -0.0060231044
    8    2    4    1        0.0190089642
    8    2    4    2        0.0389211896
    8    2    4    3       -0.0170914421
    8    3    4    1       -0.0069666104
    8    3    4    2       -0.0341197637
    8    3    4    3        0.0039733000
    8    4    4    4        0.1939513248
    8    5    4    4        0.0029965910
    8    6    4    1       -0.0054978637
    8    6    4    2       -0.0287177661
    8    6    4    3       -0.0075463264
    8    7    4    1       -0.0015800716
    8    7    4    2       -0.0046188650
    8    7    4    3       -0.0108125550
    8    8    4    4        0.6201355955
    8    1    5    1        0.0006261656
    8    1    5    2        0.0005917456
    8    1    5    3       -0.0001070440
    8    2    5    1        0.0003378316
    8    2    5    2        0.0006917162
    8    2    5    3       -0.0003037530
    8    3    5    1       -0.0001238122
    8    3    5    2       -0.0006063841
    8    3    5    3        0.0000706144
    8    4    5    4        0.0002276845
    8    4    5    5        0.1686109025
    8    5    5    4        0.0125291679
    8    5    5    5        0.0034469467
    8    6    5    1       -0.0000977093
    8    6    5    2       -0.0005103786
    8    6    5    3       -0.0001341150
    8    7    5    1       -0.0000280814
    8    7    5    2       -0.0000820875
    8    7    5    3       -0.0001921632
    8    8    5    4        0.0007205836
    8    8    5    5        0.5796029121
    8    1    6    4       -0.0058135447
    8    1    6    5       -0.0001033196
    8    2    6    4       -0.0124351519
    8    2    6    5       -0.0002210003
    8    3    6    4       -0.0054141420
    8    3    6    5       -0.0000962214
    8    4    6    1        0.0037688494
    8    4    6    2       -0.0340430705
    8    4    6    3       -0.0576839067
    8    4    6    6        0.0250380572
    8    5    6    1        0.0000669808
    8    5    6    2       -0.0006050211
    8    5    6    3       -0.0010251714
    8    5    6    6        0.0004449820
    8    6    6    4        0.0010803419
    8    6    6    5        0.0000192001
    8    7    6    4        0.0034873456
    8    7    6    5        0.0000619779
    8    8    6    1        0.0010884618
    8    8    6    2       -0.0405834764
    8    8    6    3       -0.0267001594
    8    8    6    6        0.4289778965
    8    1    7    4       -0.0036520282
    8    1    7    5       -0.0000649047
    8    2    7    4       -0.0032795769
    8    2    7    5       -0.0000582854
    8    3    7    4       -0.0039038293
    8    3    7    5       -0.0000693797
    8    4    7    1        0.0022281727
    8    4    7    2       -0.0137413663
    8    4    7    3       -0.0590843630
    8    4    7    6        0.0269302841
    8    4    7    7        0.0146725972
    8    5    7    1        0.0000395996
    8    5    7    2       -0.0002442147
    8    5    7    3       -0.0010500606
    8    5    7    6        0.0004786111
    8    5    7    7        0.0002607647
    8    6    7    4        0.0066550093
    8    6    7    5        0.0001182743
    8    7    7    4        0.0001874528
    8    7    7    5        0.0000033315
    8    8    7    1       -0.0004843629
    8    8    7    2        0.0029857791
    8    8    7    3        0.0212305341
    8    8    7    6        0.1212273657
    8    8    7    7        0.5129785309
    8    1    8    1        0.0321909649
    8    2    8    1        0.0167692981
    8    2    8    2        0.0407050365
    8    3    8    1       -0.0059006849
    8    3    8    2        0.0048821130
    8    3    8    3        0.0391136006
    8    4    8    4        0.1227581407
    8    5    8    4        0.0019454512
    8    5    8    5        0.0133268982
    8    6    8    1       -0.0044138999
    8    6    8    2        0.0084357449
    8    6    8    3        0.0250290692
    8    6    8    6        0.0330854704
    8    7    8    1       -0.0012007519
    8    7    8    2        0.0069201866
    8    7    8    3        0.0187055371
    8    7    8    6        0.0196293468
    8    7    8    7        0.0278188057
    8    8    8    4        0.0769532559
    8    8    8    5        0.0013676306
    8    8    8    8        0.6012425264
    9    4    1    1       -0.0077668196
    9    5    1    1        0.4370200864
    9    9    1    1        0.8392578846
    9    4    2    1        0.0002251983
    9    4    2    2       -0.0031458647
    9    5    2    1       -0.0126713610
    9    5    2    2        0.1770101689
    9    9    2    1       -0.0124655356
    9    9    2    2        0.6174411543
    9    4    3    1        0.0000113459
    9    4    3    2        0.0007451969
    9    4    3    3       -0.0021606989
    9    5    3    1       -0.0006384044
    9    5    3    2       -0.0419304234
    9    5    3    3        0.1215772829
    9    9    3    1        0.0049602389
    9    9    3    2        0.0382380221
    9    9    3    3        0.5924311719
    9    1    4    1       -0.0006261656
    9    1    4    2       -0.0005917456
    9    1    4    3        0.0001070440
    9    2    4    1       -0.0003378316
    9    2    4    2       -0.0006917162
    9    2    4    3        0.0003037530
    9    3    4    1        0.0001238122
    9    3    4    2        0.0006063841
    9    3    4    3       -0.0000706144
    9    4    4    4       -0.0034469467
    9    5    4    4        0.1686109025
    9    6    4    1        0.0000977093
    9    6    4    2        0.0005103786
    9    6    4    3        0.0001341150
    9    7    4    1        0.0000280814
    9    7    4    2        0.0000820875
    9    7    4    3        0.0001921632
    9    8    4    4       -0.0007205836
    9    9    4    4        0.5796029121
    9    1    5    1        0.0352328207
    9    1    5    2        0.0332960879
    9    1    5    3       -0.0060231044
    9    2    5    1        0.0190089642
    9    2    5    2        0.0389211896
    9    2    5    3       -0.0170914421
    9    3    5    1       -0.0069666104
    9    3    5    2       -0.0341197637
    9    3    5    3        0.0039733000
    9    4    5    4        0.0128112544
    9    4    5    5       -0.0029965910
    9    5    5    4       -0.0002226712
    9    5    5    5        0.1939513248
    9    6    5    1       -0.0054978637
    9    6    5    2       -0.0287177661
    9    6    5    3       -0.0075463264
    9    7    5    1       -0.0015800716
    9    7    5    2       -0.0046188650
    9    7    5    3       -0.0108125550
    9    8    5    4        0.0203660283
    9    8    5    5        0.0007205836
    9    9    5    4       -0.0007205836
    9    9    5    5        0.6201355955
    9    1    6    4        0.0001033196
    9    1    6    5       -0.0058135447
    9    2    6    4        0.0002210003
    9    2    6    5       -0.0124351519
    9    3    6    4        0.0000962214
    9    3    6    5       -0.0054141420
    9    4    6    1       -0.0000669808
    9    4    6    2        0.0006050211
    9    4    6    3        0.0010251714
    9    4    6    6       -0.0004449820
    9    5    6    1        0.0037688494
    9    5    6    2       -0.0340430705
    9    5    6    3       -0.0576839067
    9    5    6    6        0.0250380572
    9    6    6    4       -0.0000192001
    9    6    6    5        0.0010803419
    9    7    6    4       -0.0000619779
    9    7    6    5        0.0034873456
    9    9    6    1        0.0010884618
    9    9    6    2       -0.0405834764
    9    9    6    3       -0.0267001594
    9    9    6    6        0.4289778965
    9    1    7    4        0.0000649047
    9    1    7    5       -0.0036520282
    9    2    7    4        0.0000582854
    9    2    7    5       -0.0032795769
    9    3    7    4        0.0000693797
    9    3    7    5       -0.0039038293
    9    4    7    1       -0.0000395996
    9    4    7    2        0.0002442147
    9    4    7    3        0.0010500606
    9    4    7    6       -0.0004786111
    9    4    7    7       -0.0002607647
    9    5    7    1        0.0022281727
    9    5    7    2       -0.0137413663
    9    5    7    3       -0.0590843630
    9    5    7    6        0.0269302841
    9    5    7    7        0.0146725972
    9    6    7    4       -0.0001182743
    9    6    7    5        0.0066550093
    9    7    7    4       -0.0000033315
    9    7    7    5        0.0001874528
    9    9    7    1       -0.0004843629
    9    9    7    2        0.0029857791
    9    9    7    3        0.0212305341
    9    9    7    6        0.1212273657
    9    9    7    7        0.5129785309
    9    4    8    4       -0.0019454512
    9    4    8    5        0.0162785233
    9    4    8    8       -0.0012863025
    9    5    8    4        0.0931527193
    9    5    8    5        0.0019454512
    9    5    8    8        0.0723771186
    9    8    8    4       -0.0000413270
    9    8    8    5        0.0023253701
    9    9    8    4        0.0723771186
    9    9    8    5        0.0012863025
    9    9    8    8        0.5507493677
    9    1    9    1        0.0321909649
    9    2    9    1        0.0167692981
    9    2    9    2        0.0407050365
    9    3    9    1       -0.0059006849
    9    3    9    2        0.0048821130
    9    3    9    3        0.0391136006
    9    4    9    4        0.0133268982
    9    5    9    4       -0.0019454512
    9    5    9    5        0.1227581407
    9    6    9    1       -0.0044138999
    9    6    9    2        0.0084357449
    9    6    9    3        0.0250290692
    9    6    9    6        0.0330854704
    9    7    9    1       -0.0012007519
    9    7    9    2        0.0069201866
    9    7    9    3        0.0187055371
    9    7    9    6        0.0196293468
    9    7    9    7        0.0278188057
    9    8    9    4        0.0022507672
    9    8    9    5        0.0000400011
    9    8    9    8        0.0252465793
    9    9    9    4       -0.0013676306
    9    9    9    5        0.0769532559
    9    9    9    9        0.6012425264
   10    1    1    1       -0.1825528114
   10    2    1    1        0.1630182656
   10    3    1    1       -0.3791184696
   10    6    1    1        0.1299826611
   10    7    1    1        0.1469501926
   10   10    1    1        0.9077194650
   10    1    2    1        0.0279518145
   10    1    2    2       -0.0116296994
   10    2    2    1       -0.0081073359
   10    2    2    2        0.0581493175
   10    3    2    1        0.0117386230
   10    3    2    2       -0.1604038153
   10    6    2    1       -0.0038228430
   10    6    2    2        0.0496757176
   10    7    2    1       -0.0056403932
   10    7    2    2        0.0409322027
   10   10    2    1       -0.0157460045
   10   10    2    2        0.6353246683
   10    1    3    1       -0.0335616456
   10    1    3    2       -0.0267848235
   10    1    3    3        0.0017943509
   10    2    3    1       -0.0132994751
   10    2    3    2       -0.0422432856
   10    2    3    3        0.0407722798
   10    3    3    1        0.0022279222
   10    3    3    2       -0.0048344921
   10    3    3    3       -0.1397466713
   10    6    3    1        0.0035906826
   10    6    3    2        0.0243214662
   10    6    3    3        0.0447740464
   10    7    3    1       -0.0016081164
   10    7    3    2       -0.0188478959
   10    7    3    3        0.0286355696
   10   10    3    1       -0.0102449506
   10   10    3    2       -0.0912561715
   10   10    3    3        0.6112850232
   10    1    4    4       -0.0046246285
   10    2    4    4        0.0698452039
   10    3    4    4       -0.1460819351
   10    4    4    1        0.0111003458
   10    4    4    2        0.0307192462
   10    4    4    3       -0.0111448274
   10    6    4    4        0.0407656234
   10    7    4    4        0.0412394037
   10    8    4    1        0.0093608755
   10    8    4    2        0.0276840597
   10    8    4    3       -0.0203630153
   10    9    4    1       -0.0001663636
   10    9    4    2       -0.0004920074
   10    9    4    3        0.0003618961
   10   10    4    4        0.6223281400
   10    1    5    5       -0.0046246285
   10    2    5    5        0.0698452039
   10    3    5    5       -0.1460819351
   10    5    5    1        0.0111003458
   10    5    5    2        0.0307192462
   10    5    5    3       -0.0111448274
   10    6    5    5        0.0407656234
   10    7    5    5        0.0412394037
   10    8    5    1        0.0001663636
   10    8    5    2        0.0004920074
   10    8    5    3       -0.0003618961
   10    9    5    1        0.0093608755
   10    9    5    2        0.0276840597
   10    9    5    3       -0.0203630153
   10   10    5    5        0.6223281400
   10    1    6    1        0.0082137872
   10    1    6    2        0.0141231084
   10    1    6    3        0.0021249047
   10    1    6    6       -0.0080918430
   10    2    6    1        0.0094827153
   10    2    6    2        0.0046587635
   10    2    6    3       -0.0074554538
   10    2    6    6        0.0070237659
   10    3    6    1       -0.0046319065
   10    3    6    2        0.0306247941
   10    3    6    3        0.0377915978
   10    3    6    6       -0.0493471732
   10    4    6    4       -0.0018427185
   10    5    6    5       -0.0018427185
   10    6    6    1       -0.0006289202
   10    6    6    2       -0.0153539104
   10    6    6    3       -0.0019306732
   10    6    6    6        0.0382811258
   10    7    6    1        0.0024417934
   10    7    6    2       -0.0082034854
   10    7    6    3       -0.0202059622
   10    7    6    6        0.0074644082
   10    8    6    4        0.0020205598
   10    8    6    5        0.0000359098
   10    9    6    4       -0.0000359098
   10    9    6    5        0.0020205598
   10   10    6    1        0.0095545389
   10   10    6    2       -0.0244505029
   10   10    6    3       -0.1134878135
   10   10    6    6        0.3385741270
   10    1    7    1        0.0131967675
   10    1    7    2        0.0115281137
   10    1    7    3       -0.0026482485
   10    1    7    6       -0.0044355935
   10    1    7    7       -0.0059740160
   10    2    7    1        0.0086020605
   10    2    7    2        0.0068453101
   10    2    7    3       -0.0222766746
   10    2    7    6        0.0023406023
   10    2    7    7        0.0039298753
   10    3    7    1       -0.0037256428
   10    3    7    2        0.0020142812
   10    3    7    3        0.0263320545
   10    3    7    6       -0.0395096609
   10    3    7    7       -0.0741732200
   10    4    7    4        0.0005376892
   10    5    7    5        0.0005376892
   10    6    7    1       -0.0010242612
   10    6    7    2       -0.0058327131
   10    6    7    3       -0.0013203158
   10    6    7    6        0.0167289061
   10    6    7    7        0.0415307306
   10    7    7    1        0.0019046121
   10    7    7    2       -0.0070733353
   10    7    7    3       -0.0322931541
   10    7    7    6        0.0026291110
   10    7    7    7       -0.0167699793
   10    8    7    4        0.0034626323
   10    8    7    5        0.0000615387
   10    9    7    4       -0.0000615387
   10    9    7    5        0.0034626323
   10   10    7    1        0.0081651853
   10   10    7    2        0.0069355908
   10   10    7    3       -0.0802181517
   10   10    7    6        0.0917364329
   10   10    7    7        0.3690322974
   10    1    8    4       -0.0007216806
   10    1    8    5       -0.0000128259
   10    1    8    8       -0.0061103252
   10    2    8    4        0.0394847084
   10    2    8    5        0.0007017311
   10    2    8    8        0.0346198163
   10    3    8    4       -0.0685297754
   10    3    8    5       -0.0012179266
   10    3    8    8       -0.0982718594
   10    4    8    1        0.0096974885
   10    4    8    2        0.0163486645
   10    4    8    3       -0.0167098212
   10    4    8    6       -0.0004002262
   10    4    8    7        0.0028923104
   10    5    8    1        0.0001723460
   10    5    8    2        0.0002905522
   10    5    8    3       -0.0002969707
   10    5    8    6       -0.0000071129
   10    5    8    7        0.0000514028
   10    6    8    4        0.0184345589
   10    6    8    5        0.0003276231
   10    6    8    8        0.0452995764
   10    7    8    4        0.0304342188
   10    7    8    5        0.0005408838
   10    7    8    8        0.0101766556
   10    8    8    1        0.0080393734
   10    8    8    2        0.0139911199
   10    8    8    3       -0.0048342843
   10    8    8    6        0.0036671371
   10    8    8    7        0.0034353924
   10   10    8    4        0.1080659155
   10   10    8    5        0.0019205718
   10   10    8    8        0.4663312110
   10    1    9    4        0.0000128259
   10    1    9    5       -0.0007216806
   10    1    9    9       -0.0061103252
   10    2    9    4       -0.0007017311
   10    2    9    5        0.0394847084
   10    2    9    9        0.0346198163
   10    3    9    4        0.0012179266
   10    3    9    5       -0.0685297754
   10    3    9    9       -0.0982718594
   10    4    9    1       -0.0001723460
   10    4    9    2       -0.0002905522
   10    4    9    3        0.0002969707
   10    4    9    6        0.0000071129
   10    4    9    7       -0.0000514028
   10    5    9    1        0.0096974885
   10    5    9    2        0.0163486645
   10    5    9    3       -0.0167098212
   10    5    9    6       -0.0004002262
   10    5    9    7        0.0028923104
   10    6    9    4       -0.0003276231
   10    6    9    5        0.0184345589
   10    6    9    9        0.0452995764
   10    7    9    4       -0.0005408838
   10    7    9    5        0.0304342188
   10    7    9    9        0.0101766556
   10    9    9    1        0.0080393734
   10    9    9    2        0.0139911199
   10    9    9    3       -0.0048342843
   10    9    9    6        0.0036671371
   10    9    9    7        0.0034353924
   10   10    9    4       -0.0019205718
   10   10    9    5        0.1080659155
   10   10    9    9        0.4663312110
   10    1   10    1        0.0407232469
   10    2   10    1        0.0124826079
   10    2   10    2        0.0457450935
   10    3   10    1       -0.0010385198
   10    3   10    2       -0.0381337335
   10    3   10    3        0.0990872006
   10    4   10    4        0.0219123302
   10    5   10    5        0.0219123302
   10    6   10    1       -0.0039478342
   10    6   10    2        0.0122975665
   10    6   10    3       -0.0394519941
   10    6   10    6        0.0265466013
   10    7   10    1        0.0006771399
   10    7   10    2        0.0163071710
   10    7   10    3       -0.0255714934
   10    7   10    6        0.0131095751
   10    7   10    7        0.0223757177
   10    8   10    4        0.0072137513
   10    8   10    5        0.0001282044
   10    8   10    8        0.0180390711
   10    9   10    4       -0.0001282044
   10    9   10    5        0.0072137513
   10    9   10    9        0.0180390711
   10   10   10    1        0.0072800163
   10   10   10    2        0.0238304871
   10   10   10    3       -0.0657106798
   10   10   10    6       -0.0032428505
   10   10   10    7        0.0248421565
   10   10   10   10        0.6277481664
 end_two_electron_integrals
 fcidump
      5.3562718114     1   1   1   1
     -0.5289490755     2   1   1   1
      0.0832202940     2   1   2   1
      1.2549273072     2   2   1   1
     -0.0225614380     2   2   2   1
      0.8725891817     2   2   2   2
      0.0947547555     3   1   1   1
     -0.0136864312     3   1   2   1
      0.0085244640     3   1   2   2
      0.0282182602     3   1   3   1
     -0.0928920903     3   2   1   1
      0.0054682706     3   2   2   1
     -0.0180607594     3   2   2   2
      0.0280355105     3   2   3   1
      0.1494233541     3   2   3   2
      1.0315957411     3   3   1   1
     -0.0119807545     3   3   2   1
      0.7588324099     3   3   2   2
     -0.0032200937     3   3   3   1
     -0.0241879591     3   3   3   2
      0.7340493332     3   3   3   3
      0.0370016962     4   1   4   1
      0.0390061901     4   2   4   1
      0.1616973533     4   2   4   2
     -0.0066563775     4   3   4   1
     -0.0218498807     4   3   4   2
      0.0354534246     4   3   4   3
      1.2230580489     4   4   1   1
     -0.0158501681     4   4   2   1
      0.8467902498     4   4   2   2
      0.0031924289     4   4   3   1
     -0.0436697088     4   4   3   2
      0.7138107280     4   4   3   3
      0.8825463150     4   4   4   4
      0.0370016962     5   1   5   1
      0.0390061901     5   2   5   1
      0.1616973533     5   2   5   2
     -0.0066563775     5   3   5   1
     -0.0218498807     5   3   5   2
      0.0354534246     5   3   5   3
      0.0391061785     5   4   5   4
      1.2230580489     5   5   1   1
     -0.0158501681     5   5   2   1
      0.8467902498     5   5   2   2
      0.0031924289     5   5   3   1
     -0.0436697088     5   5   3   2
      0.7138107280     5   5   3   3
      0.8004222416     5   5   4   4
      0.8825463150     5   5   5   5
      0.1156873500     6   1   1   1
     -0.0198867855     6   1   2   1
      0.0022034330     6   1   2   2
     -0.0103796058     6   1   3   1
     -0.0160858390     6   1   3   2
      0.0050834094     6   1   3   3
      0.0024054325     6   1   4   4
      0.0024054325     6   1   5   5
      0.0117859054     6   1   6   1
     -0.1672554448     6   2   1   1
      0.0038592177     6   2   2   1
     -0.0949570449     6   2   2   2
     -0.0139443846     6   2   3   1
     -0.0426134365     6   2   3   2
     -0.0501813128     6   2   3   3
     -0.0861333719     6   2   4   4
     -0.0861333719     6   2   5   5
      0.0062404560     6   2   6   1
      0.0455476793     6   2   6   2
     -0.2538236470     6   3   1   1
      0.0036592696     6   3   2   1
     -0.1455538507     6   3   2   2
     -0.0013873050     6   3   3   1
      0.0327413685     6   3   3   2
     -0.1045148512     6   3   3   3
     -0.1354827074     6   3   4   4
     -0.1354827074     6   3   5   5
     -0.0001480491     6   3   6   1
      0.0307872686     6   3   6   2
      0.0790732446     6   3   6   3
     -0.0069683198     6   4   4   1
     -0.0213992250     6   4   4   2
     -0.0103490330     6   4   4   3
      0.0165604861     6   4   6   4
     -0.0069683198     6   5   5   1
     -0.0213992250     6   5   5   2
     -0.0103490330     6   5   5   3
      0.0165604861     6   5   6   5
      0.4968968872     6   6   1   1
     -0.0034849235     6   6   2   1
      0.4244636406     6   6   2   2
      0.0079250975     6   6   3   1
      0.0487309256     6   6   3   2
      0.4289960033     6   6   3   3
      0.4022493643     6   6   4   4
      0.4022493643     6   6   5   5
     -0.0028782965     6   6   6   1
     -0.0227084746     6   6   6   2
      0.0080413509     6   6   6   3
      0.3967191877     6   6   6   6
      0.0436131935     7   1   1   1
     -0.0080507843     7   1   2   1
     -0.0007203561     7   1   2   2
     -0.0132484764     7   1   3   1
     -0.0157915604     7   1   3   2
      0.0043836603     7   1   3   3
      0.0004994552     7   1   4   4
      0.0004994552     7   1   5   5
      0.0094491151     7   1   6   1
      0.0069211093     7   1   6   2
      0.0000497266     7   1   6   3
     -0.0033543706     7   1   6   6
      0.0088216924     7   1   7   1
     -0.0643567924     7   2   1   1
      0.0012731271     7   2   2   1
     -0.0311763805     7   2   2   2
     -0.0114866823     7   2   3   1
     -0.0265171658     7   2   3   2
      0.0107244642     7   2   3   3
     -0.0335783083     7   2   4   4
     -0.0335783083     7   2   5   5
      0.0058023586     7   2   6   1
      0.0304677926     7   2   6   2
      0.0185700495     7   2   6   3
      0.0024958122     7   2   6   6
      0.0061729688     7   2   7   1
      0.0316856099     7   2   7   2
     -0.2213327449     7   3   1   1
      0.0052022586     7   3   2   1
     -0.0940339999     7   3   2   2
      0.0038548647     7   3   3   1
      0.0653511908     7   3   3   2
     -0.0458325365     7   3   3   3
     -0.0971850748     7   3   4   4
     -0.0971850748     7   3   5   5
     -0.0033047510     7   3   6   1
      0.0187887972     7   3   6   2
      0.0780445771     7   3   6   3
      0.0308993957     7   3   6   6
     -0.0029318671     7   3   7   1
      0.0241896622     7   3   7   2
      0.1125299316     7   3   7   3
     -0.0046450387     7   4   4   1
     -0.0221946589     7   4   4   2
     -0.0094660754     7   4   4   3
      0.0106121458     7   4   6   4
      0.0121311097     7   4   7   4
     -0.0046450387     7   5   5   1
     -0.0221946589     7   5   5   2
     -0.0094660754     7   5   5   3
      0.0106121458     7   5   6   5
      0.0121311097     7   5   7   5
      0.2043089818     7   6   1   1
     -0.0032072102     7   6   2   1
      0.1368236265     7   6   2   2
      0.0040733107     7   6   3   1
      0.0219523368     7   6   3   2
      0.1440309130     7   6   3   3
      0.1200153792     7   6   4   4
      0.1200153792     7   6   5   5
     -0.0010934000     7   6   6   1
     -0.0157158244     7   6   6   2
     -0.0095842585     7   6   6   3
      0.0728975289     7   6   6   6
     -0.0014458121     7   6   7   1
      0.0092057316     7   6   7   2
      0.0274187227     7   6   7   3
      0.0733587171     7   6   7   6
      0.5207006295     7   7   1   1
     -0.0029514176     7   7   2   1
      0.4672135688     7   7   2   2
      0.0060109481     7   7   3   1
      0.0777343720     7   7   3   2
      0.5146000739     7   7   3   3
      0.4316899725     7   7   4   4
      0.4316899725     7   7   5   5
     -0.0020306156     7   7   6   1
     -0.0132332770     7   7   6   2
      0.0362278274     7   7   6   3
      0.4374454526     7   7   6   6
     -0.0023113751     7   7   7   1
      0.0363191465     7   7   7   2
      0.1151972227     7   7   7   3
      0.1437760325     7   7   7   6
      0.6158991324     7   7   7   7
      0.0352328207     8   1   4   1
      0.0332960879     8   1   4   2
     -0.0060231044     8   1   4   3
      0.0006261656     8   1   5   1
      0.0005917456     8   1   5   2
     -0.0001070440     8   1   5   3
     -0.0058135447     8   1   6   4
     -0.0001033196     8   1   6   5
     -0.0036520282     8   1   7   4
     -0.0000649047     8   1   7   5
      0.0321909649     8   1   8   1
      0.0190089642     8   2   4   1
      0.0389211896     8   2   4   2
     -0.0170914421     8   2   4   3
      0.0003378316     8   2   5   1
      0.0006917162     8   2   5   2
     -0.0003037530     8   2   5   3
     -0.0124351519     8   2   6   4
     -0.0002210003     8   2   6   5
     -0.0032795769     8   2   7   4
     -0.0000582854     8   2   7   5
      0.0167692981     8   2   8   1
      0.0407050365     8   2   8   2
     -0.0069666104     8   3   4   1
     -0.0341197637     8   3   4   2
      0.0039733000     8   3   4   3
     -0.0001238122     8   3   5   1
     -0.0006063841     8   3   5   2
      0.0000706144     8   3   5   3
     -0.0054141420     8   3   6   4
     -0.0000962214     8   3   6   5
     -0.0039038293     8   3   7   4
     -0.0000693797     8   3   7   5
     -0.0059006849     8   3   8   1
      0.0048821130     8   3   8   2
      0.0391136006     8   3   8   3
      0.4370200864     8   4   1   1
     -0.0126713610     8   4   2   1
      0.1770101689     8   4   2   2
     -0.0006384044     8   4   3   1
     -0.0419304234     8   4   3   2
      0.1215772829     8   4   3   3
      0.1939513248     8   4   4   4
      0.0002276845     8   4   5   4
      0.1686109025     8   4   5   5
      0.0037688494     8   4   6   1
     -0.0340430705     8   4   6   2
     -0.0576839067     8   4   6   3
      0.0250380572     8   4   6   6
      0.0022281727     8   4   7   1
     -0.0137413663     8   4   7   2
     -0.0590843630     8   4   7   3
      0.0269302841     8   4   7   6
      0.0146725972     8   4   7   7
      0.1227581407     8   4   8   4
      0.0077668196     8   5   1   1
     -0.0002251983     8   5   2   1
      0.0031458647     8   5   2   2
     -0.0000113459     8   5   3   1
     -0.0007451969     8   5   3   2
      0.0021606989     8   5   3   3
      0.0029965910     8   5   4   4
      0.0125291679     8   5   5   4
      0.0034469467     8   5   5   5
      0.0000669808     8   5   6   1
     -0.0006050211     8   5   6   2
     -0.0010251714     8   5   6   3
      0.0004449820     8   5   6   6
      0.0000395996     8   5   7   1
     -0.0002442147     8   5   7   2
     -0.0010500606     8   5   7   3
      0.0004786111     8   5   7   6
      0.0002607647     8   5   7   7
      0.0019454512     8   5   8   4
      0.0133268982     8   5   8   5
     -0.0054978637     8   6   4   1
     -0.0287177661     8   6   4   2
[...]
 tce:restart_ignore_failure           logical[4]      Tue Jul 30 17:24:04 2019 
 tce:guess_lr_real                    logical[1]      Tue Jul 30 17:24:04 2019 
 basis:ao basis:tags info                 int[280]    Tue Jul 30 17:24:04 2019 
 tce:skip_t                           logical[1]      Tue Jul 30 17:24:04 2019 
 tce:hbard                                int[1]      Tue Jul 30 17:24:04 2019 
 tce:diagnt1                          logical[1]      Tue Jul 30 17:24:04 2019 
 geometry:geometry:zmt_ijkang_frz        logical[160]    Tue Jul 30 17:24:04 2019 
 tce:read_integrals                   logical[5]      Tue Jul 30 17:24:04 2019 
 tce:bnumfreq                             int[1]      Tue Jul 30 17:24:04 2019 
 tce:ccsdvar                             char[5]      Tue Jul 30 17:24:04 2019 
 tce:lineresp                         logical[1]      Tue Jul 30 17:24:04 2019 
 tce:save_l                           logical[4]      Tue Jul 30 17:24:04 2019 
 tce:ichopx                               int[1]      Tue Jul 30 17:24:04 2019 
 tce:nogamma                          logical[1]      Tue Jul 30 17:24:04 2019 
 scf:dipole                            double[3]      Tue Jul 30 17:24:04 2019 
 geometry:ngeom                           int[1]      Tue Jul 30 17:24:04 2019 
 tce:uact                                 int[1]      Tue Jul 30 17:24:04 2019 
 geometry:geometry:zmt_ijklto             int[640]    Tue Jul 30 17:24:04 2019 
 tce:save_tr                          logical[8]      Tue Jul 30 17:24:04 2019 
 geometry:geometry:zmt_ijklnb             int[640]    Tue Jul 30 17:24:04 2019 
 geometry:geometry:operators           double[2304]   Tue Jul 30 17:24:04 2019 
 tce:zlshiftl                          double[1]      Tue Jul 30 17:24:04 2019 
 tce:skip_tr                          logical[1]      Tue Jul 30 17:24:04 2019 
 basis:ao basis:star nr tags              int[1]      Tue Jul 30 17:24:04 2019 
 geometry:geometry:zmt_ijkang_val         double[160]    Tue Jul 30 17:24:04 2019 
 tce:anumfreq                             int[1]      Tue Jul 30 17:24:04 2019 
 geometry:geometry:zmt_ijklto_nam           char[160]    Tue Jul 30 17:24:04 2019 
 geometry:geometry:zmt_ijklop_frz        logical[160]    Tue Jul 30 17:24:04 2019 
 tce:save_t                           logical[4]      Tue Jul 30 17:24:04 2019 
 geometry:geometry:zmt_varsign         double[1]      Tue Jul 30 17:24:04 2019 
 geometry:geometry:recip vectors         double[3]      Tue Jul 30 17:24:04 2019 
 tce:model                               char[5]      Tue Jul 30 17:24:04 2019 
 tce:maxiter                              int[1]      Tue Jul 30 17:24:04 2019 
 tce:symmetry                         logical[1]      Tue Jul 30 17:24:04 2019 
 tce:save_x                           logical[4]      Tue Jul 30 17:24:04 2019 
 geometry:geometry:no. unique centers            int[1]      Tue Jul 30 17:24:04 2019 
 basis:ao basis:contraction info            int[90000]  Tue Jul 30 17:24:04 2019 
 tce:save_y                           logical[4]      Tue Jul 30 17:24:04 2019 
 geometry:geometry:zmt_izmat              int[3]      Tue Jul 30 17:24:04 2019 
 basis:ao basis:bs_nr_tags                int[1]      Tue Jul 30 17:24:04 2019 
 geometry:geometry:zmt_ijklop_val         double[160]    Tue Jul 30 17:24:04 2019 
 geometry:geometry:group number            int[1]      Tue Jul 30 17:24:04 2019 
 tce:nactv                                int[1]      Tue Jul 30 17:24:04 2019 
 tce:active_va                            int[1]      Tue Jul 30 17:24:04 2019 
 geometry:geometry:recip angles         double[3]      Tue Jul 30 17:24:04 2019 
 tce:active_vb                            int[1]      Tue Jul 30 17:24:04 2019 
 tce:active_oa                            int[1]      Tue Jul 30 17:24:04 2019 
 tce:active_ob                            int[1]      Tue Jul 30 17:24:04 2019 
 geometry:geometry:zmt_varname           char[2]      Tue Jul 30 17:24:04 2019 
 tce:thresh                            double[1]      Tue Jul 30 17:24:04 2019 
 geometry:geometry:system type            int[1]      Tue Jul 30 17:24:04 2019 
 tce:energy                            double[1]      Tue Jul 30 17:24:16 2019 
 tce:nopolar                          logical[1]      Tue Jul 30 17:24:04 2019 
 basis:ao basis:bs_stdname               char[16]     Tue Jul 30 17:24:04 2019 
 geometry:geometry:charges             double[2]      Tue Jul 30 17:24:04 2019 
 tce:respaxis                         logical[3]      Tue Jul 30 17:24:04 2019 
 tce:perturbative                        char[5]      Tue Jul 30 17:24:04 2019 
 scf:multiplicity                        char[8]      Tue Jul 30 17:24:04 2019 
 geometry:geometry:zmt_nizmat             int[1]      Tue Jul 30 17:24:04 2019 
 scf:output vectors                      char[24]     Tue Jul 30 17:24:04 2019 
 basis:ao basis:header                    int[7]      Tue Jul 30 17:24:04 2019 
 geometry:geometry:zmt_cvr_scaling         double[1]      Tue Jul 30 17:24:04 2019 
 geometry:geometry:tags                  char[4]      Tue Jul 30 17:24:04 2019 
 scf:input vectors                       char[24]     Tue Jul 30 17:24:04 2019 
 geometry:geometry:zmt_ijklnb_nam           char[160]    Tue Jul 30 17:24:04 2019 
 geometry:geometry:zmt_ijklto_frz        logical[160]    Tue Jul 30 17:24:04 2019 
 geometry:geometry:include_bqbq        logical[1]      Tue Jul 30 17:24:04 2019 
 tce:qducc                            logical[1]      Tue Jul 30 17:24:04 2019 
 geometry:geometry:zmt_ijklop             int[640]    Tue Jul 30 17:24:04 2019 
 geometry:geometry:group name            char[3]      Tue Jul 30 17:24:04 2019 
 tce:model2e                             char[6]      Tue Jul 30 17:24:04 2019 
 tce:eactmax                           double[1]      Tue Jul 30 17:24:04 2019 
 tce:zlshift2                          double[2]      Tue Jul 30 17:24:04 2019 
 tce:eactmin                           double[1]      Tue Jul 30 17:24:04 2019 
 basisprint:ao basis                  logical[1]      Tue Jul 30 17:24:04 2019 
 tce:oact                                 int[1]      Tue Jul 30 17:24:04 2019 
 tce:zlshift3                          double[2]      Tue Jul 30 17:24:04 2019 
 tce:densmat                          logical[1]      Tue Jul 30 17:24:04 2019 
 tce:nroots                               int[1]      Tue Jul 30 17:24:04 2019 
 geometry:geometry:zmt_ijklto_val         double[160]    Tue Jul 30 17:24:04 2019 
 geometry:geometry:zmt_maxtor             int[1]      Tue Jul 30 17:24:04 2019 
 scf:converged                        logical[1]      Tue Jul 30 17:24:04 2019 
 scf:nelec                                int[1]      Tue Jul 30 17:24:04 2019 
 tce:maxdiff                           double[1]      Tue Jul 30 17:24:04 2019 
 tce:guess_qr_real                    logical[1]      Tue Jul 30 17:24:04 2019 
 basis:ao basis:number of exps and coeffs            int[1]      Tue Jul 30 17:24:04 2019 
 geometry:names                          char[9]      Tue Jul 30 17:24:04 2019 
 geometry:geometry:masses              double[2]      Tue Jul 30 17:24:04 2019 
 tce:zlshift                           double[1]      Tue Jul 30 17:24:04 2019 
 tce:eoms                                 int[1]      Tue Jul 30 17:24:04 2019 
 tce:ampnorms                         logical[1]      Tue Jul 30 17:24:04 2019 
 scf:scftype                             char[4]      Tue Jul 30 17:24:04 2019 
 tce:diis2                                int[1]      Tue Jul 30 17:24:04 2019 
 tce:read_l                           logical[4]      Tue Jul 30 17:24:04 2019 
 tce:enegr                             double[1]      Tue Jul 30 17:24:16 2019 
 basis:ao basis:exps and coeffs         double[54]     Tue Jul 30 17:24:04 2019 
 tce:diis3                                int[1]      Tue Jul 30 17:24:04 2019 
 geometry:geometry:unique centers            int[2]      Tue Jul 30 17:24:04 2019 
 tce:read_lr                          logical[8]      Tue Jul 30 17:24:04 2019 
 geometry:geometry:zmt_ijbond_nam           char[160]    Tue Jul 30 17:24:04 2019 
 geometry:geometry:amatrix             double[9]      Tue Jul 30 17:24:04 2019 
 geometry:geometry:inv nuc expon         double[2]      Tue Jul 30 17:24:04 2019 
 geometry:geometry:zmt_ijklnb_val         double[160]    Tue Jul 30 17:24:04 2019 
 geometry:geometry:vel                 double[6]      Tue Jul 30 17:24:04 2019 
 geometry:geometry:zmt_ijklnb_frz        logical[160]    Tue Jul 30 17:24:04 2019 
 task:status                          logical[1]      Tue Jul 30 17:24:16 2019 
 geometry:geometry:direct volume         double[1]      Tue Jul 30 17:24:04 2019 
 tce:afreq                             double[1]      Tue Jul 30 17:24:04 2019 
 geometry:geometry:num_operators            int[1]      Tue Jul 30 17:24:04 2019 
 tce:read_t                           logical[4]      Tue Jul 30 17:24:04 2019 
 tce:save_interval                        int[1]      Tue Jul 30 17:24:04 2019 
 basis:nbasis                             int[1]      Tue Jul 30 17:24:04 2019 
 file_prefix                             char[15]     Tue Jul 30 17:24:04 2019 
 geometry:geometry:primitive_center           char[2]      Tue Jul 30 17:24:04 2019 
 task:energy                           double[1]      Tue Jul 30 17:24:16 2019 
 geometry:geometry:ncenter                int[1]      Tue Jul 30 17:24:04 2019 
 tce:idiskx                               int[1]      Tue Jul 30 17:24:04 2019 
 tce:damp2                             double[1]      Tue Jul 30 17:24:04 2019 
 geometry:geometry:zmt_nzvar              int[1]      Tue Jul 30 17:24:04 2019 
 tce:quadresp                         logical[1]      Tue Jul 30 17:24:04 2019 
 tce:damp3                             double[1]      Tue Jul 30 17:24:04 2019 
 scf:thresh                            double[1]      Tue Jul 30 17:24:04 2019 
 scf:energy                            double[1]      Tue Jul 30 17:24:04 2019 
 tce:read_tr                          logical[8]      Tue Jul 30 17:24:04 2019 
 tce:read_x                           logical[4]      Tue Jul 30 17:24:04 2019 
 basis:ao basis:assoc ecp name           char[4]      Tue Jul 30 17:24:04 2019 
 tce:read_y                           logical[4]      Tue Jul 30 17:24:04 2019 
 geometry:geometry:zmt_ijbond             int[320]    Tue Jul 30 17:24:04 2019 
 geometry:geometry:zmt_source            char[6]      Tue Jul 30 17:24:04 2019 
 geometry:geometry:setting number            int[1]      Tue Jul 30 17:24:04 2019 
 tce:act_excit_lvl                        int[1]      Tue Jul 30 17:24:04 2019 
 basis:ao basis:bs_tags                  char[4]      Tue Jul 30 17:24:04 2019 
 tce:i4im                                 int[1]      Tue Jul 30 17:24:04 2019 
 scf:tol2e                             double[1]      Tue Jul 30 17:24:04 2019 
 tce:diis                                 int[1]      Tue Jul 30 17:24:04 2019 
 tce:recompf                          logical[1]      Tue Jul 30 17:24:04 2019 
 rtdb:stored:state                    logical[3]      Tue Jul 30 17:24:04 2019 
 scf:alpha irreps                         int[19]     Tue Jul 30 17:24:04 2019 
 tce:module                              char[4]      Tue Jul 30 17:24:04 2019 
 geometry:geometry:zmt_ijbond_frz        logical[160]    Tue Jul 30 17:24:04 2019 
 tce:target                               int[1]      Tue Jul 30 17:24:04 2019 
 tce:left                             logical[1]      Tue Jul 30 17:24:04 2019 


 HDBM usage statistics
 ---------------------
 Reads         = 1940
 Inserts       = 1090
 Replaces      = 374
 Extracts      = 0
 Deletes       = 2166
 Reuses        = 16

 Memory allocs = 10072
 Memory frees  = 10072
 Memory max    = 1519711
 Memory in use = 0

 IO seeks      = 4081
 IO reads      = 2970
 IO writes     = 3289
 IO nread      = 3222156
 IO nwrite     = 2392636

 Summary of allocated global arrays
-----------------------------------
  No active global arrays



                         GA Statistics for process    0
                         ------------------------------

       create   destroy   get      put      acc     scatter   gather  read&inc
calls: 2092     2092     6575     2643     3423        0        0     4357     
number of processes/call 5.61e+14 4.98e+14 2.18e+13 0.00e+00 0.00e+00
bytes total:             1.86e+08 9.49e+06 4.47e+07 0.00e+00 0.00e+00 3.49e+04
bytes remote:            0.00e+00 0.00e+00 0.00e+00 0.00e+00 0.00e+00 0.00e+00
Max memory consumed for GA by this process: 1663800 bytes

MA_summarize_allocated_blocks: starting scan ...
MA_summarize_allocated_blocks: scan completed: 0 heap blocks, 0 stack blocks
MA usage statistics:

	allocation statistics:
					      heap	     stack
					      ----	     -----
	current number of blocks	         0	         0
	maximum number of blocks	        17	        40
	current total bytes		         0	         0
	maximum total bytes		   1060368	  55520424
	maximum total K-bytes		      1061	     55521
	maximum total M-bytes		         2	        56

	calls per routine:
		        39  MA_alloc_get
		        39  MA_allocate_heap
		       163  MA_chop_stack
		        39  MA_free_heap
		         0  MA_free_heap_piece
		     15450  MA_get_index
		         5  MA_get_mbase
		         0  MA_get_next_memhandle
		         0  MA_get_numalign
		        43  MA_get_pointer
		         1  MA_init
		         0  MA_initialized
		         0  MA_init_memhandle_iterator
		       212  MA_inquire_avail
		         1  MA_inquire_heap
		         0  MA_inquire_heap_check_stack
		         0  MA_inquire_heap_no_partition
		         1  MA_inquire_stack
		         0  MA_inquire_stack_check_heap
		         0  MA_inquire_stack_no_partition
		     15214  MA_pop_stack
		         1  MA_print_stats
		     15411  MA_push_get
		     15454  MA_push_stack
		         3  MA_set_auto_verify
		         1  MA_set_error_print
		         3  MA_set_hard_fail
		         1  MA_set_numalign
		      9253  MA_sizeof
		        22  MA_sizeof_overhead
		         1  MA_summarize_allocated_blocks
		         0  MA_trace
		     55887  MA_verify_allocator_stuff


                                     CITATION
                                     --------
                Please cite the following reference when publishing
                           results obtained with NWChem:

                 M. Valiev, E.J. Bylaska, N. Govind, K. Kowalski,
              T.P. Straatsma, H.J.J. van Dam, D. Wang, J. Nieplocha,
                        E. Apra, T.L. Windus, W.A. de Jong
                 "NWChem: a comprehensive and scalable open-source
                  solution for large scale molecular simulations"
                      Comput. Phys. Commun. 181, 1477 (2010)
                           doi:10.1016/j.cpc.2010.04.018

                                      AUTHORS
                                      -------
          E. Apra, E. J. Bylaska, W. A. de Jong, N. Govind, K. Kowalski,
       T. P. Straatsma, M. Valiev, H. J. J. van Dam, D. Wang, T. L. Windus,
        J. Hammond, J. Autschbach, K. Bhaskaran-Nair, J. Brabec, K. Lopata,
    S. A. Fischer, S. Krishnamoorthy, M. Jacquelin, W. Ma, M. Klemm, O. Villa,
      Y. Chen, V. Anisimov, F. Aquino, S. Hirata, M. T. Hackler, V. Konjkov,
            D. Mejia-Rodriguez, T. Risthaus, M. Malagoli, A. Marenich,
   A. Otero-de-la-Roza, J. Mullin, P. Nichols, R. Peverati, J. Pittner, Y. Zhao,
        P.-D. Fan, A. Fonari, M. J. Williamson, R. J. Harrison, J. R. Rehr,
      M. Dupuis, D. Silverstein, D. M. A. Smith, J. Nieplocha, V. Tipparaju,
    M. Krishnan, B. E. Van Kuiken, A. Vazquez-Mayagoitia, L. Jensen, M. Swart,
      Q. Wu, T. Van Voorhis, A. A. Auer, M. Nooijen, L. D. Crosby, E. Brown,
      G. Cisneros, G. I. Fann, H. Fruchtl, J. Garza, K. Hirao, R. A. Kendall,
      J. A. Nichols, K. Tsemekhman, K. Wolinski, J. Anchell, D. E. Bernholdt,
      P. Borowski, T. Clark, D. Clerc, H. Dachsel, M. J. O. Deegan, K. Dyall,
    D. Elwood, E. Glendening, M. Gutowski, A. C. Hess, J. Jaffe, B. G. Johnson,
     J. Ju, R. Kobayashi, R. Kutteh, Z. Lin, R. Littlefield, X. Long, B. Meng,
      T. Nakajima, S. Niu, L. Pollack, M. Rosing, K. Glaesemann, G. Sandrone,
      M. Stave, H. Taylor, G. Thomas, J. H. van Lenthe, A. T. Wong, Z. Zhang.

                                    REFERENCES
                                    ----------

          Where appropriate, please cite the following reference(s) 
          when publishing results obtained with NWChem:


     1. D. E. Bernholdt, E. Apra, H. A. Fruchtl, M.F. Guest, R. J. Harrison, 
        R. A. Kendall, R. A. Kutteh, X. Long, J. B. Nicholas, J. A. Nichols, 
        H. L. Taylor, A. T. Wong, G. I. Fann, R. J. Littlefield and
        J. Nieplocha,
        "Parallel Computational Chemistry Made Easier: 
        The Development of NWChem,"
        Int. J. Quantum Chem. Symposium  29, 475-483 (1995).


     2. M. F. Guest, E. Apra, D. E. Bernholdt, H. A. Fruchtl, R. J. Harrison, 
        R. A. Kendall, R. A. Kutteh, X. Long, J. B. Nicholas, J. A. Nichols, 
        H. L. Taylor, A. T. Wong, G. I. Fann, R. J. Littlefield and
        J. Nieplocha,
        "High Performance Computational Chemistry: NWChem and Fully Distributed
        Parallel Applications", in Advances in Parallel Computing, 10, High
        Performance Computing: Technology, Methods, and Applications, Eds. 
        J. Dongarra, L. Gradinetti, G. Joubert, and J. Kowalik, 
        (Elsevier Science B. V. pp. 395-427, 1995).


     3. M. F. Guest, E. Apra, D. E. Bernholdt, H. A. Fruchtl, R. J. Harrison, 
        R. A. Kendall, R. A. Kutteh, J. B. Nicholas, J. A. Nichols, M. S. Stave,
        A. T. Wong, R. J. Littlefield and J. Nieplocha, "High Performance 
        Computational Chemistry: Towards Fully Distributed Parallel Algorithms",
        in High Performance Computing: Symposium 1995, Grand Challenges in 
        Computer Simulation, Adrian M. Tentner, Editor, Proceedings of the 1995 
        Simulation Multiconference, April 9-13, 1995, Phoenix, Arizona, 
        Simulation Councils, Inc., The Society for Computer Simulation, 
        San Diego, CA, 1995. pp. 511-521.


     4. M. F. Guest, E. Apra, D. E. Bernholdt, H. A. Fruchtl, R. J. Harrison,
        R. A. Kendall, R. A. Kutteh, X. Long, J. B. Nicholas, J. A. Nichols, 
        H. L. Taylor, A. T. Wong, G. I. Fann, R. J. Littlefield and
        J. Nieplocha,
        "Advances in Parallel Distributed Data Software; Computational Chemistry
        and NWChem", in Applied Parallel Computing.  Computations in Physics,
        Chemistry, and Engineering Science, Eds. J. Wasnieski, J. Dongarra, and 
        K. Madsen, Lecture Notes in Computer Science, 1041,
        (Springer-Verlag, Berlin, 278-294, 1996).


     5. M. F. Guest, E. Apra, D. E. Bernholdt, H. A. Fruchtl, R. J. Harrison,
        R. A. Kendall, R. A. Kutteh, X. Long, J. B. Nicholas, J. A. Nichols, 
        H. L. Taylor, A. T. Wong, G. I. Fann, R. J. Littlefield and
        J. Nieplocha, 
        "High-Performance Computing in Chemistry; NWChem", Future 
        Generations Computer Systems  12(4), 273, (1996).


     6. R. A. Kendall, E. Apra, D. E. Bernholdt, E. J. Bylaska, M. Dupuis,
        G. I. Fann, R. J. Harrison, J. Ju, J. A. Nichols, J. Nieplocha,
        T. P. Straatsma, T. L. Windus, A. T. Wong,
        Computer Phys. Comm. 128, 260 (2000).


     7. T. P. Straatsma and V. Helms, in Molecular Dynamics on Parallel
        Computers2000, R. Esser et al. editors, p 70.


     8.  T. P. Straatsma, M. Philippopoulos and J. A. McCammon,
         Computer Phys. Comm. 128, 377 (2000).


     9.  M. Valiev, E. J. Bylaska, A. Gramada, and J. H. Weare,
         Reviews in Modern Quantum Chemistry, pages 1684-1734
         (World Scientific, Singapore, 2002).


    10.  E. J. Bylaska, M. Valiev, R. Kawai, and J. H. Weare,
         Computer Phys. Comm. 143, 11 (2002).


    11.  M. Valiev and J. H. Weare,
         J. Phys. Chem. A, 103, 10588 (1999).



 Total times  cpu:       12.4s     wall:       12.4s
