 argument  1 = originalHF.nw
  NWChem w/ OpenMP: maximum threads =    4



============================== echo of input deck ==============================
start tce_hf_1.19184

echo
memory total 6 gb
print high

geometry units angstrom
symmetry c1
H  0.0000000  0.0000  1.28352
F  0.0000000  0.0000  0.00000
end


basis spherical
H library cc-pvdz
F library cc-pvdz
end

scf
thresh 1.0e-10
tol2e 1.0e-10
singlet
rhf
end

tce
2eorb
2emet 13
thresh 1.0d-8
ccsd
end

set tce:qducc T
set tce:nactv 5

task tce energy

================================================================================


                                         
                                         


              Northwest Computational Chemistry Package (NWChem) 6.8
              ------------------------------------------------------


                    Environmental Molecular Sciences Laboratory
                       Pacific Northwest National Laboratory
                                Richland, WA 99352

                              Copyright (c) 1994-2018
                       Pacific Northwest National Laboratory
                            Battelle Memorial Institute

             NWChem is an open-source computational chemistry package
                        distributed under the terms of the
                      Educational Community License (ECL) 2.0
             A copy of the license is included with this distribution
                              in the LICENSE.TXT file

                                  ACKNOWLEDGMENT
                                  --------------

            This software and its documentation were developed at the
            EMSL at Pacific Northwest National Laboratory, a multiprogram
            national laboratory, operated for the U.S. Department of Energy
            by Battelle under Contract Number DE-AC05-76RL01830. Support
            for this work was provided by the Department of Energy Office
            of Biological and Environmental Research, Office of Basic
            Energy Sciences, and the Office of Advanced Scientific Computing.


           Job information
           ---------------

    hostname        = WE27583
    program         = /Users/lamm799/nwchem/bin/MACX64/nwchem
    date            = Tue Jul 30 17:25:39 2019

    compiled        = Mon_Jul_15_13:12:43_2019
    source          = /Users/lamm799/nwchem
    nwchem branch   = Development
    nwchem revision = nwchem_on_git-975-g459e4567d
    ga revision     = 5.7.0
    use scalapack   = F
    input           = originalHF.nw
    prefix          = tce_hf_1.19184.
    data base       = ./tce_hf_1.19184.db
    status          = startup
    nproc           =        1
    time left       =     -1s



           Memory information
           ------------------

    heap     =  201326588 doubles =   1536.0 Mbytes
    stack    =  201326593 doubles =   1536.0 Mbytes
    global   =  402653184 doubles =   3072.0 Mbytes (distinct from heap & stack)
    total    =  805306365 doubles =   6144.0 Mbytes
    verify   = yes
    hardfail = no 


           Directory information
           ---------------------

  0 permanent = .
  0 scratch   = .




                                NWChem Input Module
                                -------------------



 Scaling coordinates for geometry "geometry" by  1.889725989
 (inverse scale =  0.529177249)

 Turning off AUTOSYM since
 SYMMETRY directive was detected!

     MOLECULAR POINT GROUP NUMBER =  1     SCHOENFLIES SYMBOL = C1        

                --------------- GROUP GENERATORS ---------------

                      1 GENERATORS USED TO FORM THE GROUP

                         PT fold Rotoinversion Operator
                     1.000000  0.000000  0.000000  0.000000
                     0.000000  1.000000  0.000000  0.000000
                     0.000000  0.000000  1.000000  0.000000


The   1 symmetry operators (excl. E) are as follows:



                    ---------- FULL LISTING OF GROUP ----------

                  MATRIX REPRESENTATIONS OF THE GROUP OPERATORS

     EXCLUDING THE IDENTITY OPERATOR THERE ARE  1 OPERATORS IN THIS GROUP

                         pt fold Rotoinversion Operator
                     1.000000  0.000000  0.000000  0.000000
                     0.000000  1.000000  0.000000  0.000000
                     0.000000  0.000000  1.000000  0.000000


                  <<< SYMMETRY OPERATION/ATOM MAPPING BUILT >>>
      Symmetry information
      --------------------

 Group name             C1        
 Group number              1
 Group order               1
 No. of unique centers     2



                  Character table for group C1      

                  1e     
        a          1.000

      Symmetry unique atoms

     1    2

      Mapping of centers


      Group operations



          ------
          auto-z
          ------
     1 autoz failed with cvr_scaling = 1.2 changing to 1.3
     2 autoz failed with cvr_scaling = 1.3 changing to 1.4
  no constraints, skipping    0.0000000000000000     
 Imposing constraints:   iter = 1  dqmax = 0.0D+00
  no constraints, skipping    0.0000000000000000     


                             Geometry "geometry" -> ""
                             -------------------------

 Output coordinates in angstroms (scale by  1.889725989 to convert to a.u.)

  No.       Tag          Charge          X              Y              Z
 ---- ---------------- ---------- -------------- -------------- --------------
    1 H                    1.0000     0.00000000     0.00000000     1.15516800
    2 F                    9.0000     0.00000000     0.00000000    -0.12835200

      Atomic Mass 
      ----------- 

      H                  1.007825
      F                 18.998400


 Effective nuclear repulsion energy (a.u.)       3.7105734550

            Nuclear Dipole moment (a.u.) 
            ----------------------------
        X                 Y               Z
 ---------------- ---------------- ----------------
     0.0000000000     0.0000000000     0.0000000000



                                Z-matrix (autoz)
                                -------- 

 Units are Angstrom for bonds and degrees for angles

      Type          Name      I     J     K     L     M      Value
      ----------- --------  ----- ----- ----- ----- ----- ----------
    1 Stretch                  1     2                       1.28352


            XYZ format geometry
            -------------------
     2
 geometry
 H                     0.00000000     0.00000000     1.15516800
 F                     0.00000000     0.00000000    -0.12835200

                      Basis "ao basis" -> "" (spherical)
                      -----
  H (Hydrogen)
  ------------
            Exponent  Coefficients 
       -------------- ---------------------------------------------------------
  1 S  1.30100000E+01  0.019685
  1 S  1.96200000E+00  0.137977
  1 S  4.44600000E-01  0.478148

  2 S  1.22000000E-01  1.000000

  3 P  7.27000000E-01  1.000000

  F (Fluorine)
  ------------
            Exponent  Coefficients 
       -------------- ---------------------------------------------------------
  1 S  1.47100000E+04  0.000721
  1 S  2.20700000E+03  0.005553
  1 S  5.02800000E+02  0.028267
  1 S  1.42600000E+02  0.106444
  1 S  4.64700000E+01  0.286814
  1 S  1.67000000E+01  0.448641
  1 S  6.35600000E+00  0.264761
  1 S  1.31600000E+00  0.015333

  2 S  1.47100000E+04 -0.000165
  2 S  2.20700000E+03 -0.001308
  2 S  5.02800000E+02 -0.006495
  2 S  1.42600000E+02 -0.026691
  2 S  4.64700000E+01 -0.073690
  2 S  1.67000000E+01 -0.170776
  2 S  6.35600000E+00 -0.112327
  2 S  1.31600000E+00  0.562814

  3 S  3.89700000E-01  1.000000

  4 P  2.26700000E+01  0.044878
  4 P  4.97700000E+00  0.235718
  4 P  1.34700000E+00  0.508521

  5 P  3.47100000E-01  1.000000

  6 D  1.64000000E+00  1.000000



 Summary of "ao basis" -> "" (spherical)
 ------------------------------------------------------------------------------
       Tag                 Description            Shells   Functions and Types
 ---------------- ------------------------------  ------  ---------------------
 H                          cc-pvdz                  3        5   2s1p
 F                          cc-pvdz                  6       14   3s2p1d



 Setting fock-build task_bf   :      -1
                    maxquartet:   10000
                    maxeri    :  129600
                    maxscr    :       0
                    intacc    : 0.0D+00
                    denscreen : T
                    dentol    : 1.0D-06

                                 NWChem SCF Module
                                 -----------------



  ao basis        = "ao basis"
  functions       =    19
  atoms           =     2
  closed shells   =     5
  open shells     =     0
  charge          =   0.00
  wavefunction    = RHF 
  input vectors   = atomic
  output vectors  = ./tce_hf_1.19184.movecs
  use symmetry    = F
  symmetry adapt  = F


 Summary of "ao basis" -> "ao basis" (spherical)
 ------------------------------------------------------------------------------
       Tag                 Description            Shells   Functions and Types
 ---------------- ------------------------------  ------  ---------------------
 H                          cc-pvdz                  3        5   2s1p
 F                          cc-pvdz                  6       14   3s2p1d




                         Geometry "geometry" -> "geometry"
                         ---------------------------------

 Output coordinates in angstroms (scale by  1.889725989 to convert to a.u.)

  No.       Tag          Charge          X              Y              Z
 ---- ---------------- ---------- -------------- -------------- --------------
    1 H                    1.0000     0.00000000     0.00000000     1.15516800
    2 F                    9.0000     0.00000000     0.00000000    -0.12835200

      Atomic Mass 
      ----------- 

      H                  1.007825
      F                 18.998400


 Effective nuclear repulsion energy (a.u.)       3.7105734550

            Nuclear Dipole moment (a.u.) 
            ----------------------------
        X                 Y               Z
 ---------------- ---------------- ----------------
     0.0000000000     0.0000000000     0.0000000000



                                Z-matrix (autoz)
                                -------- 

 Units are Angstrom for bonds and degrees for angles

      Type          Name      I     J     K     L     M      Value
      ----------- --------  ----- ----- ----- ----- ----- ----------
    1 Stretch                  1     2                       1.28352


                      Basis "ao basis" -> "ao basis" (spherical)
                      -----
  H (Hydrogen)
  ------------
            Exponent  Coefficients 
       -------------- ---------------------------------------------------------
  1 S  1.30100000E+01  0.019685
  1 S  1.96200000E+00  0.137977
  1 S  4.44600000E-01  0.478148

  2 S  1.22000000E-01  1.000000

  3 P  7.27000000E-01  1.000000

  F (Fluorine)
  ------------
            Exponent  Coefficients 
       -------------- ---------------------------------------------------------
  1 S  1.47100000E+04  0.000721
  1 S  2.20700000E+03  0.005553
  1 S  5.02800000E+02  0.028267
  1 S  1.42600000E+02  0.106444
  1 S  4.64700000E+01  0.286814
  1 S  1.67000000E+01  0.448641
  1 S  6.35600000E+00  0.264761
  1 S  1.31600000E+00  0.015333

  2 S  1.47100000E+04 -0.000165
  2 S  2.20700000E+03 -0.001308
  2 S  5.02800000E+02 -0.006495
  2 S  1.42600000E+02 -0.026691
  2 S  4.64700000E+01 -0.073690
  2 S  1.67000000E+01 -0.170776
  2 S  6.35600000E+00 -0.112327
  2 S  1.31600000E+00  0.562814

  3 S  3.89700000E-01  1.000000

  4 P  2.26700000E+01  0.044878
  4 P  4.97700000E+00  0.235718
  4 P  1.34700000E+00  0.508521

  5 P  3.47100000E-01  1.000000

  6 D  1.64000000E+00  1.000000



    Basis function labels
    ---------------------
       No.  Atm El Type
       ---  --- -- ----
        1    1 H  s          
        2    1 H  s          
        3    1 H  px         
        4    1 H  py         
        5    1 H  pz         
        6    2 F  s          
        7    2 F  s          
        8    2 F  s          
        9    2 F  px         
       10    2 F  py         
       11    2 F  pz         
       12    2 F  px         
       13    2 F  py         
       14    2 F  pz         
       15    2 F  d -2       
       16    2 F  d -1       
       17    2 F  d  0       
       18    2 F  d  1       
       19    2 F  d  2       

 Schwarz integral screening summary 
 ---------------------------------- 

        No. of atom pairs =       3
       No. of shell pairs =      45

 Atomic screening 

   value      no.     value      no.     value      no.     value      no.   
  -------- ------    -------- ------    -------- ------    -------- ------   
  0.00D+00      0    1.00D-13      0    1.00D-12      0    1.00D-11      0
  1.00D-10      0    1.00D-09      0    1.00D-08      0    1.00D-07      0
  1.00D-06      0    1.00D-05      0    1.00D-04      0    1.00D-03      0
  1.00D-02      0    1.00D-01      0    1.00D+00      3    1.00D+01      0


 Shell screening 

   value      no.     value      no.     value      no.     value      no.   
  -------- ------    -------- ------    -------- ------    -------- ------   
  0.00D+00      0    1.00D-13      0    1.00D-12      0    1.00D-11      0
  1.00D-10      0    1.00D-09      0    1.00D-08      0    1.00D-07      0
  1.00D-06      0    1.00D-05      0    1.00D-04      0    1.00D-03      0
  1.00D-02      1    1.00D-01     16    1.00D+00     28    1.00D+01      0



 Forming initial guess at       0.1s


      Superposition of Atomic Density Guess
      -------------------------------------

 Sum of atomic energies:         -99.88314519

      Non-variational initial energy
      ------------------------------

 Total energy =     -99.566952
 1-e energy   =    -147.101173
 2-e energy   =      43.823647
 HOMO         =      -0.595432
 LUMO         =      -0.031213


 Setting fock-build task_bf   :      -1
                    maxquartet:   10000
                    maxeri    :  129600
                    maxscr    :       0
                    intacc    : 0.0D+00
                    denscreen : T
                    dentol    : 1.0D-06


 Wrote molecular orbitals to ./tce_hf_1.19184.movecs


 Starting SCF solution at       0.1s

 ready to solve ...                    0


 ----------------------------------------------
         Quadratically convergent ROHF

 Convergence threshold     :          1.000E-10
 Maximum no. of iterations :           30
 Final Fock-matrix accuracy:          1.000E-10
 ----------------------------------------------

   0: nuse=   1(   0.9) avail=   434885Mb (out of   434885Mb) on .

 #quartets = 1.035D+03 #integrals = 4.841D+03 #direct =  0.0% #cached =100.0%


 Integral file          = ./tce_hf_1.19184.aoints.0
 Record size in doubles =  65536        No. of integs per rec  =  43688
 Max. records in memory =      2        Max. records in file   = 826280
 No. of bits per label  =      8        No. of bits per value  =     64


 Wrote rohf: cfock to ./tce_hf_1.19184.cfock


              iter       energy          gnorm     gmax       time
             ----- ------------------- --------- --------- --------
                 1      -99.8802354785  9.04D-01  4.07D-01      0.1

            ----- linear solve (tol: 1.0E-02 prod-acc: 1.1E-08) -----

               iter nbas    rnorm     rnorm-scal   ratio     time
               ---- ---- ----------- ----------- --------- -------
 rohf_wrap: in g_x =    1              0.90350696
 rohf_wrap: out g_x =    1              0.19480562
                  1    1  6.2220E-16  6.8865E-16    0.0000     0.1

                              ----- Line search ------

        step       energy         lsg     num-lsg   num-lsh   lsrat    time
      ------- ---------------- --------- --------- --------- ------- --------
       0.0000     -99.88023548 -1.43D-01  0.00D+00  0.00D+00 0.0D+00      0.1

 Wrote rohf: cfock to ./tce_hf_1.19184.cfock

       1.0000     -99.91562179  7.98D-02  7.59D-02  2.23D-01 5.6D-01      0.1

 Wrote rohf: cfock to ./tce_hf_1.19184.cfock

       0.6418     -99.92889455 -5.01D-03 -5.33D-03  2.37D-01 3.5D-02      0.1

              iter       energy          gnorm     gmax       time
             ----- ------------------- --------- --------- --------
                 2      -99.9288945462  2.51D-01  1.18D-01      0.1

            ----- linear solve (tol: 1.0E-02 prod-acc: 3.0E-09) -----

               iter nbas    rnorm     rnorm-scal   ratio     time
               ---- ---- ----------- ----------- --------- -------
 rohf_wrap: in g_x =    1              0.25138873
 rohf_wrap: out g_x =    1              0.03735706
                  1    1  6.1352E-03  2.4405E-02    0.0000     0.1
 rohf_wrap: in g_x =    1              0.00613518
 rohf_wrap: out g_x =    1              0.00079629
                  2    2  1.6635E-04  6.6173E-04    0.0271     0.1

                              ----- Line search ------

        step       energy         lsg     num-lsg   num-lsh   lsrat    time
      ------- ---------------- --------- --------- --------- ------- --------
       0.0000     -99.92889455 -8.42D-03  0.00D+00  0.00D+00 0.0D+00      0.1

 Wrote rohf: cfock to ./tce_hf_1.19184.cfock

       1.0000     -99.93409265 -1.97D-03 -1.97D-03  6.45D-03 2.3D-01      0.2

 Wrote rohf: cfock to ./tce_hf_1.19184.cfock

       1.3053     -99.93439289  3.43D-06  3.33D-06  6.46D-03 4.1D-04      0.2

              iter       energy          gnorm     gmax       time
             ----- ------------------- --------- --------- --------
                 3      -99.9343928855  8.83D-02  3.94D-02      0.2

            ----- linear solve (tol: 8.8E-02 prod-acc: 9.3E-09) -----

               iter nbas    rnorm     rnorm-scal   ratio     time
               ---- ---- ----------- ----------- --------- -------
 rohf_wrap: in g_x =    1              0.08828010
 rohf_wrap: out g_x =    1              0.01315186
                  1    1  3.2263E-02  3.6546E-01    0.0000     0.2
 rohf_wrap: in g_x =    1              0.03226317
 rohf_wrap: out g_x =    1              0.00455835
                  2    2  9.5447E-03  1.0812E-01    0.2958     0.2
 rohf_wrap: in g_x =    1              0.00954468
 rohf_wrap: out g_x =    1              0.00221796
                  3    3  1.4797E-03  1.6761E-02    0.1550     0.2

                              ----- Line search ------

        step       energy         lsg     num-lsg   num-lsh   lsrat    time
      ------- ---------------- --------- --------- --------- ------- --------
       0.0000     -99.93439289 -9.84D-04  0.00D+00  0.00D+00 0.0D+00      0.2

 Wrote rohf: cfock to ./tce_hf_1.19184.cfock

       1.0000     -99.93488646 -1.44D-06 -2.08D-06  9.83D-04 1.5D-03      0.2

              iter       energy          gnorm     gmax       time
             ----- ------------------- --------- --------- --------
                 4      -99.9348864572  1.64D-03  6.22D-04      0.2

            ----- linear solve (tol: 1.6E-03 prod-acc: 3.2E-12) -----

               iter nbas    rnorm     rnorm-scal   ratio     time
               ---- ---- ----------- ----------- --------- -------
 rohf_wrap: in g_x =    1              0.00163613
 rohf_wrap: out g_x =    1              0.00021476
                  1    1  2.9281E-04  1.7896E-01    0.0000     0.2
 rohf_wrap: in g_x =    1              0.00029281
 rohf_wrap: out g_x =    1              0.00003462
                  2    2  1.0385E-04  6.3471E-02    0.3547     0.2
 rohf_wrap: in g_x =    1              0.00010385
 rohf_wrap: out g_x =    1              0.00002415
                  3    3  2.3708E-05  1.4491E-02    0.2283     0.2
 rohf_wrap: in g_x =    1              0.00002371
 rohf_wrap: out g_x =    1              0.00000373
                  4    4  3.1362E-06  1.9169E-03    0.1323     0.2
 rohf_wrap: in g_x =    1              0.00000314
 rohf_wrap: out g_x =    1              0.00000049
                  5    5  5.6427E-07  3.4488E-04    0.1799     0.2

                              ----- Line search ------

        step       energy         lsg     num-lsg   num-lsh   lsrat    time
      ------- ---------------- --------- --------- --------- ------- --------
       0.0000     -99.93488646 -3.38D-07  0.00D+00  0.00D+00 0.0D+00      0.2

 Wrote rohf: cfock to ./tce_hf_1.19184.cfock

       1.0000     -99.93488663 -1.17D-11 -1.76D-11  3.38D-07 3.5D-05      0.2

              iter       energy          gnorm     gmax       time
             ----- ------------------- --------- --------- --------
                 5      -99.9348866263  5.48D-07  2.13D-07      0.2

            ----- linear solve (tol: 1.8E-05 prod-acc: 1.2E-17) -----

               iter nbas    rnorm     rnorm-scal   ratio     time
               ---- ---- ----------- ----------- --------- -------
 rohf_wrap: in g_x =    1              0.00000055
 rohf_wrap: out g_x =    1              0.00000006
                  1    1  1.3220E-07  2.4139E-01    0.0000     0.2
 rohf_wrap: in g_x =    1              0.00000013
 rohf_wrap: out g_x =    1              0.00000002
                  2    2  3.5619E-08  6.5040E-02    0.2694     0.2
 rohf_wrap: in g_x =    1              0.00000004
 rohf_wrap: out g_x =    1              0.00000000
                  3    3  6.2752E-09  1.1458E-02    0.1762     0.2
 rohf_wrap: in g_x =    1              0.00000001
 rohf_wrap: out g_x =    1              0.00000000
                  4    4  9.9980E-10  1.8256E-03    0.1593     0.2
 rohf_wrap: in g_x =    1              0.00000000
 rohf_wrap: out g_x =    1              0.00000000
                  5    5  1.1684E-10  2.1335E-04    0.1169     0.2
 rohf_wrap: in g_x =    1              0.00000000
 rohf_wrap: out g_x =    1              0.00000000
                  6    6  1.1947E-11  2.1815E-05    0.1022     0.2
 rohf_wrap: in g_x =    1              0.00000000
 rohf_wrap: out g_x =    1              0.00000000
                  7    7  9.9896E-13  1.8241E-06    0.0836     0.2

                              ----- Line search ------

        step       energy         lsg     num-lsg   num-lsh   lsrat    time
      ------- ---------------- --------- --------- --------- ------- --------
       0.0000     -99.93488663 -3.83D-14  0.00D+00  0.00D+00 0.0D+00      0.2

 Wrote rohf: cfock to ./tce_hf_1.19184.cfock

       1.0000     -99.93488663 -1.24D-20  4.76D-14  3.83D-14 3.2D-07      0.2

              iter       energy          gnorm     gmax       time
             ----- ------------------- --------- --------- --------
                 6      -99.9348866263  9.98D-13  3.77D-13      0.2

 Wrote molecular orbitals to ./tce_hf_1.19184.movecs



       Final RHF  results 
       ------------------ 

         Total SCF energy =    -99.934886626257
      One-electron energy =   -148.069262416189
      Two-electron energy =     44.423802334904
 Nuclear repulsion energy =      3.710573455028

        Time for solution =      0.1s


             Final eigenvalues
             -----------------

              1      
    1  -26.2805
    2   -1.5046
    3   -0.6203
    4   -0.6027
    5   -0.6027
    6    0.0807
    7    0.6063
    8    1.3206
    9    1.3206
   10    1.5650
   11    1.6295
   12    1.6295
   13    1.7222
   14    2.2757
   15    4.0318
   16    4.0318
   17    4.0664
   18    4.0664
   19    4.4967

                       ROHF Final Molecular Orbital Analysis
                       -------------------------------------

 Vector    1  Occ=2.000000D+00  E=-2.628050D+01
              MO Center= -7.6D-20, -3.7D-20, -1.3D-01, r^2= 1.2D-02
   Bfn.  Coefficient  Atom+Function         Bfn.  Coefficient  Atom+Function  
  ----- ------------  ---------------      ----- ------------  ---------------
     6      1.000581  2 F  s          

 Vector    2  Occ=2.000000D+00  E=-1.504615D+00
              MO Center= -6.1D-18,  2.8D-17, -8.3D-02, r^2= 3.7D-01
   Bfn.  Coefficient  Atom+Function         Bfn.  Coefficient  Atom+Function  
  ----- ------------  ---------------      ----- ------------  ---------------
     8      0.561916  2 F  s                  7      0.492066  2 F  s          

 Vector    3  Occ=2.000000D+00  E=-6.203127D-01
              MO Center=  1.5D-17, -6.1D-17,  1.8D-01, r^2= 7.9D-01
   Bfn.  Coefficient  Atom+Function         Bfn.  Coefficient  Atom+Function  
  ----- ------------  ---------------      ----- ------------  ---------------
    11      0.526755  2 F  pz                14      0.373897  2 F  pz         
     1      0.315787  1 H  s          

 Vector    4  Occ=2.000000D+00  E=-6.026982D-01
              MO Center=  1.0D-17, -6.7D-17, -1.2D-01, r^2= 4.4D-01
   Bfn.  Coefficient  Atom+Function         Bfn.  Coefficient  Atom+Function  
  ----- ------------  ---------------      ----- ------------  ---------------
    10      0.647364  2 F  py                13      0.466277  2 F  py         
     9      0.167174  2 F  px         

 Vector    5  Occ=2.000000D+00  E=-6.026982D-01
              MO Center=  4.8D-17,  1.3D-17, -1.2D-01, r^2= 4.4D-01
   Bfn.  Coefficient  Atom+Function         Bfn.  Coefficient  Atom+Function  
  ----- ------------  ---------------      ----- ------------  ---------------
     9      0.647364  2 F  px                12      0.466277  2 F  px         
    10     -0.167174  2 F  py         

 Vector    6  Occ=0.000000D+00  E= 8.069328D-02
              MO Center=  1.3D-17,  8.5D-18,  1.0D+00, r^2= 1.7D+00
   Bfn.  Coefficient  Atom+Function         Bfn.  Coefficient  Atom+Function  
  ----- ------------  ---------------      ----- ------------  ---------------
     2      0.894364  1 H  s                 14     -0.397061  2 F  pz         
     8     -0.377927  2 F  s                 11     -0.337877  2 F  pz         
     1      0.275937  1 H  s          

 Vector    7  Occ=0.000000D+00  E= 6.063108D-01
              MO Center=  2.4D-17, -6.6D-18,  1.2D+00, r^2= 1.6D+00
   Bfn.  Coefficient  Atom+Function         Bfn.  Coefficient  Atom+Function  
  ----- ------------  ---------------      ----- ------------  ---------------
     1      1.294696  1 H  s                  2     -1.217626  1 H  s          
     8      0.267325  2 F  s                 11     -0.249120  2 F  pz         

 Vector    8  Occ=0.000000D+00  E= 1.320589D+00
              MO Center=  1.3D-17, -1.7D-16,  6.1D-01, r^2= 9.7D-01
   Bfn.  Coefficient  Atom+Function         Bfn.  Coefficient  Atom+Function  
  ----- ------------  ---------------      ----- ------------  ---------------
     4      0.683160  1 H  py                10     -0.635715  2 F  py         
    13      0.580845  2 F  py         

 Vector    9  Occ=0.000000D+00  E= 1.320589D+00
              MO Center= -4.2D-17, -6.2D-18,  6.1D-01, r^2= 9.7D-01
   Bfn.  Coefficient  Atom+Function         Bfn.  Coefficient  Atom+Function  
  ----- ------------  ---------------      ----- ------------  ---------------
     3      0.683160  1 H  px                 9     -0.635715  2 F  px         
    12      0.580845  2 F  px         

 Vector   10  Occ=0.000000D+00  E= 1.564985D+00
              MO Center=  1.1D-16,  1.8D-16, -5.1D-01, r^2= 8.8D-01
   Bfn.  Coefficient  Atom+Function         Bfn.  Coefficient  Atom+Function  
  ----- ------------  ---------------      ----- ------------  ---------------
    14      1.176092  2 F  pz                11     -0.718964  2 F  pz         
     7      0.604472  2 F  s                  5      0.510437  1 H  pz         
     1     -0.421158  1 H  s                  8     -0.344550  2 F  s          
     6      0.214890  2 F  s          

 Vector   11  Occ=0.000000D+00  E= 1.629547D+00
              MO Center= -1.0D-16,  2.2D-17,  3.6D-01, r^2= 1.2D+00
   Bfn.  Coefficient  Atom+Function         Bfn.  Coefficient  Atom+Function  
  ----- ------------  ---------------      ----- ------------  ---------------
    12      0.894924  2 F  px                 3     -0.746951  1 H  px         
     9     -0.679015  2 F  px         

 Vector   12  Occ=0.000000D+00  E= 1.629547D+00
              MO Center=  7.2D-18,  4.2D-17,  3.6D-01, r^2= 1.2D+00
   Bfn.  Coefficient  Atom+Function         Bfn.  Coefficient  Atom+Function  
  ----- ------------  ---------------      ----- ------------  ---------------
    13      0.894924  2 F  py                 4     -0.746951  1 H  py         
    10     -0.679015  2 F  py         

 Vector   13  Occ=0.000000D+00  E= 1.722188D+00
              MO Center= -5.0D-17, -3.1D-17,  8.2D-01, r^2= 7.0D-01
   Bfn.  Coefficient  Atom+Function         Bfn.  Coefficient  Atom+Function  
  ----- ------------  ---------------      ----- ------------  ---------------
     5      0.794535  1 H  pz                11      0.603093  2 F  pz         
     7      0.480743  2 F  s                 14     -0.321328  2 F  pz         
     8     -0.230191  2 F  s                  6      0.166533  2 F  s          

 Vector   14  Occ=0.000000D+00  E= 2.275743D+00
              MO Center= -3.6D-17, -9.1D-17,  2.9D-01, r^2= 1.1D+00
   Bfn.  Coefficient  Atom+Function         Bfn.  Coefficient  Atom+Function  
  ----- ------------  ---------------      ----- ------------  ---------------
     8      1.936495  2 F  s                  7     -1.476598  2 F  s          
     5      0.799893  1 H  pz                14      0.777740  2 F  pz         
     6     -0.647005  2 F  s                  2     -0.495880  1 H  s          
     1     -0.346063  1 H  s                 11     -0.162817  2 F  pz         
    17     -0.159837  2 F  d  0       

 Vector   15  Occ=0.000000D+00  E= 4.031773D+00
              MO Center=  2.5D-17,  2.7D-17, -1.3D-01, r^2= 3.0D-01
   Bfn.  Coefficient  Atom+Function         Bfn.  Coefficient  Atom+Function  
  ----- ------------  ---------------      ----- ------------  ---------------
    19      0.943419  2 F  d  2              15     -0.331603  2 F  d -2       

 Vector   16  Occ=0.000000D+00  E= 4.031773D+00
              MO Center= -4.1D-17, -6.2D-17, -1.3D-01, r^2= 3.0D-01
   Bfn.  Coefficient  Atom+Function         Bfn.  Coefficient  Atom+Function  
  ----- ------------  ---------------      ----- ------------  ---------------
    15      0.943419  2 F  d -2              19      0.331603  2 F  d  2       

 Vector   17  Occ=0.000000D+00  E= 4.066396D+00
              MO Center=  9.3D-19,  3.5D-17, -1.1D-01, r^2= 3.3D-01
   Bfn.  Coefficient  Atom+Function         Bfn.  Coefficient  Atom+Function  
  ----- ------------  ---------------      ----- ------------  ---------------
    18      0.999346  2 F  d  1               3      0.150121  1 H  px         

 Vector   18  Occ=0.000000D+00  E= 4.066396D+00
              MO Center=  3.1D-17,  3.7D-17, -1.1D-01, r^2= 3.3D-01
   Bfn.  Coefficient  Atom+Function         Bfn.  Coefficient  Atom+Function  
  ----- ------------  ---------------      ----- ------------  ---------------
    16      0.999346  2 F  d -1               4     -0.150121  1 H  py         

 Vector   19  Occ=0.000000D+00  E= 4.496737D+00
              MO Center=  2.7D-18,  1.6D-17,  2.6D-04, r^2= 5.1D-01
   Bfn.  Coefficient  Atom+Function         Bfn.  Coefficient  Atom+Function  
  ----- ------------  ---------------      ----- ------------  ---------------
    17      1.032265  2 F  d  0               8      0.619360  2 F  s          
     5      0.555426  1 H  pz                14      0.475128  2 F  pz         
     1     -0.369968  1 H  s                  7     -0.345998  2 F  s          
     6     -0.170841  2 F  s          


 center of mass
 --------------
 x =   0.00000000 y =   0.00000000 z =  -0.12036411

 moments of inertia (a.u.)
 ------------------
           5.630409183166           0.000000000000           0.000000000000
           0.000000000000           5.630409183166           0.000000000000
           0.000000000000           0.000000000000           0.000000000000

  Mulliken analysis of the total density
  --------------------------------------

   Bfn.    Population  Atom+Function
   ---------------------------------
     1      0.419905    1 H  s          
     2      0.149180    1 H  s          
     3      0.005579    1 H  px         
     4      0.005579    1 H  py         
     5      0.023352    1 H  pz         
     6      2.001136    2 F  s          
     7      0.904246    2 F  s          
     8      1.061013    2 F  s          
     9      1.210901    2 F  px         
    10      1.210901    2 F  py         
    11      0.804937    2 F  pz         
    12      0.783378    2 F  px         
    13      0.783378    2 F  py         
    14      0.634681    2 F  pz         
    15      0.000000    2 F  d -2       
    16      0.000142    2 F  d -1       
    17      0.001551    2 F  d  0       
    18      0.000142    2 F  d  1       
    19      0.000000    2 F  d  2       

    Atom       Charge   Shell Charges
 -----------   ------   -------------------------------------------------------
    1 H    1     0.60   0.42  0.15  0.03
    2 F    9     9.40   2.00  0.90  1.06  3.23  2.20  0.00

       Multipole analysis of the density wrt the origin
       ------------------------------------------------

     L   x y z        total         open         nuclear
     -   - - -        -----         ----         -------
     0   0 0 0     -0.000000      0.000000     10.000000

     1   1 0 0     -0.000000      0.000000      0.000000
     1   0 1 0      0.000000      0.000000      0.000000
     1   0 0 1      1.034774      0.000000      0.000000

     2   2 0 0     -4.234209      0.000000      0.000000
     2   1 1 0     -0.000000      0.000000      0.000000
     2   1 0 1     -0.000000      0.000000      0.000000
     2   0 2 0     -4.234209      0.000000      0.000000
     2   0 1 1      0.000000      0.000000      0.000000
     2   0 0 2     -1.520478      0.000000      5.294750


 Wrote molecular orbitals to ./tce_hf_1.19184.movecs


 Parallel integral file used       1 records with       0 large values


 Read molecular orbitals from ./tce_hf_1.19184.movecs


 Schwarz integral screening summary 
 ---------------------------------- 

        No. of atom pairs =       3
       No. of shell pairs =      45

 Atomic screening 

   value      no.     value      no.     value      no.     value      no.   
  -------- ------    -------- ------    -------- ------    -------- ------   
  0.00D+00      0    1.00D-13      0    1.00D-12      0    1.00D-11      0
  1.00D-10      0    1.00D-09      0    1.00D-08      0    1.00D-07      0
  1.00D-06      0    1.00D-05      0    1.00D-04      0    1.00D-03      0
  1.00D-02      0    1.00D-01      0    1.00D+00      3    1.00D+01      0


 Shell screening 

   value      no.     value      no.     value      no.     value      no.   
  -------- ------    -------- ------    -------- ------    -------- ------   
  0.00D+00      0    1.00D-13      0    1.00D-12      0    1.00D-11      0
  1.00D-10      0    1.00D-09      0    1.00D-08      0    1.00D-07      0
  1.00D-06      0    1.00D-05      0    1.00D-04      0    1.00D-03      0
  1.00D-02      1    1.00D-01     16    1.00D+00     28    1.00D+01      0


                   NWChem Extensible Many-Electron Theory Module
                   ---------------------------------------------

              ======================================================
                   This portion of the program was automatically
                  generated by a Tensor Contraction Engine (TCE).
                  The development of this portion of the program
                 and TCE was supported by US Department of Energy,
                Office of Science, Office of Basic Energy Science.
                      TCE is a product of Battelle and PNNL.
              Please cite: S.Hirata, J.Phys.Chem.A 107, 9887 (2003).
              ======================================================

            General Information
            -------------------
      Number of processors :     1
         Wavefunction type : Restricted Hartree-Fock
          No. of electrons :    10
           Alpha electrons :     5
            Beta electrons :     5
           No. of orbitals :    38
            Alpha orbitals :    19
             Beta orbitals :    19
        Alpha frozen cores :     0
         Beta frozen cores :     0
     Alpha frozen virtuals :     0
      Beta frozen virtuals :     0
         Spin multiplicity : singlet 
    Number of AO functions :    19
       Number of AO shells :     9
        Use of symmetry is : off
      Symmetry adaption is : off
         Schwarz screening : 0.10D-09

          Correlation Information
          -----------------------
          Calculation type : Coupled-cluster singles & doubles                           
   Perturbative correction : none                                                        
            Max iterations :      100
        Residual threshold : 0.10D-07
     T(0) DIIS level shift : 0.00D+00
     L(0) DIIS level shift : 0.00D+00
     T(1) DIIS level shift : 0.00D+00
     L(1) DIIS level shift : 0.00D+00
     T(R) DIIS level shift : 0.00D+00
     T(I) DIIS level shift : 0.00D+00
   CC-T/L Amplitude update :  5-th order DIIS
                I/O scheme : Global Array Library
        L-threshold :  0.10D-07
        EOM-threshold :  0.10D-07
 no EOMCCSD initial starts read in
 TCE RESTART OPTIONS
 READ_INT:   F
 WRITE_INT:  F
 READ_TA:    F
 WRITE_TA:   F
 READ_XA:    F
 WRITE_XA:   F
 READ_IN3:   F
 WRITE_IN3:  F
 SLICE:      F
 D4D5:       F
 quantumc:   F
 qrotation:  F
 qducc:      T
 nacto:                         0
 nrotv:                         0
 nrot:                          0

            Memory Information
            ------------------
          Available GA space size is     402652823 doubles
          Available MA space size is     402651564 doubles

 Maximum block size        32 doubles

 tile_dim =     14

 Block   Spin    Irrep     Size     Offset   Alpha
 -------------------------------------------------
   1    alpha     a      5 doubles       0       1
   2    beta      a      5 doubles       5       1
   3    alpha     a     14 doubles      10       3
   4    beta      a     14 doubles      24       3

 Global array virtual files algorithm will be used

 Parallel file system coherency ......... OK

 Setting fock-build task_bf   :      -1
                    maxquartet:   10000
                    maxeri    :  129600
                    maxscr    :       0
                    intacc    : 0.0D+00
                    denscreen : T
                    dentol    : 1.0D-06

   0: nuse=   1(   0.9) avail=   434885Mb (out of   434885Mb) on .

 #quartets = 1.035D+03 #integrals = 4.841D+03 #direct =  0.0% #cached =100.0%


 Integral file          = ./tce_hf_1.19184.aoints.0
 Record size in doubles =  65536        No. of integs per rec  =  43688
 Max. records in memory =      2        Max. records in file   = 826280
 No. of bits per label  =      8        No. of bits per value  =     64


 Fock matrix recomputed
 1-e file size   =              361
 1-e file name   = ./tce_hf_1.19184.f1
 Cpu & wall time / sec            0.0            0.0
 4-electron integrals stored in orbital form

 v2    file size   =            64311
 4-index algorithm nr.  13 is used
 imaxsize =       30
 imaxsize ichop =        0
 Cpu & wall time / sec            0.1            0.1
 T1-number-of-tasks                    1

 t1 file size   =               70
 t1 file name   = ./tce_hf_1.19184.t1
 t1 file handle =       -998
 T2-number-of-boxes                    2

 t2 file size   =             9800
 t2 file name   = ./tce_hf_1.19184.t2
 t2 file handle =       -996

 CCSD iterations
 -----------------------------------------------------------------
 Iter          Residuum       Correlation     Cpu    Wall    V2*C2
 -----------------------------------------------------------------
    1   0.1185576912266  -0.2186722806603     0.0     0.0     0.0
    2   0.0354583154859  -0.2190176189902     0.0     0.0     0.0
    3   0.0149327280676  -0.2227992340252     0.0     0.0     0.0
    4   0.0071988483315  -0.2237388119431     0.0     0.0     0.0
    5   0.0035449087240  -0.2242546283345     0.0     0.0     0.0
 MICROCYCLE DIIS UPDATE:                    5                    5
    6   0.0006197160166  -0.2246545422860     0.0     0.0     0.0
    7   0.0003896283140  -0.2246898137458     0.0     0.0     0.0
    8   0.0001588940170  -0.2247009775287     0.0     0.0     0.0
    9   0.0001003507447  -0.2247029243126     0.0     0.0     0.0
   10   0.0000500942987  -0.2247064743412     0.0     0.0     0.0
 MICROCYCLE DIIS UPDATE:                   10                    5
   11   0.0000048994860  -0.2247098098948     0.0     0.0     0.0
   12   0.0000016686812  -0.2247100205132     0.0     0.0     0.0
   13   0.0000006730508  -0.2247101324380     0.0     0.0     0.0
   14   0.0000003099562  -0.2247101734727     0.0     0.0     0.0
   15   0.0000001381355  -0.2247101885084     0.0     0.0     0.0
 MICROCYCLE DIIS UPDATE:                   15                    5
   16   0.0000000140465  -0.2247102014604     0.0     0.0     0.0
   17   0.0000000052417  -0.2247102024036     0.0     0.0     0.0
 -----------------------------------------------------------------
 Iterations converged
 CCSD correlation energy / hartree =        -0.224710202403627
 CCSD total energy / hartree       =      -100.159596828660995

 Singles contributions

 Doubles contributions
     6a   (alpha)     6a   (beta ) ---     3a   (alpha)     3a   (beta )       -0.1219609240
 Ground state specification:
 exp(T)|Ref>~(1+T)|Ref>
 ------- a(p)+/a(q) strings ----------

 singles norm

 doubles norm

 Reference string
  0.99264471995187575      :(1a)+ (2a)+ (3a)+ (4a)+ (5a)+ (1b)+ (2b)+ (3b)+ (4b)+ (5b)+ |0>

 Singles strings

 Doubles strings
 -0.12106386724230436      :(6a)+ (6b)+ (3b)  (3a)  (1a)+ (2a)+ (3a)+ (4a)+ (5a)+ (1b)+ (2b)+ (3b)+ (4b)+ (5b)+ |0>
 -------------------------------------
 enrep_tce =    3.7105734550278018     
  EHF(total)         =       -99.93488663
  Shift (HFtot-HFA)  =         0.00000000
 ALL OCCUPIED ORBITALS ARE ACTIVE IN DUCC --> NO SHIFT
 Number of active orbitals                   10
 Number of active alpha electrons                    5
 Number of active beta electrons                    5
  nos                    10
  nvs                    28
 noas                     5
 nobs                     5
 nvas                    14
 nvbs                    14
 nactv                     5
 From DUCC CCSD corr. ene. -0.22471020240362480     
 From DUCC CCSD corr. ene.-e-part  0.15595474452730285     
 begin_one_electron_integrals
    1    1       -40.8294135276
    1    2         0.7486250806
    1    3        -0.0969093968
    1    6        -0.1295825743
    1    7        -0.0210626012
    1   10         0.3055495487
    2    1         0.7486250806
    2    2        -9.2435610272
    2    3         0.3327744048
    2    6         0.7240944579
    2    7         0.0994970711
    2   10        -0.9431066936
    3    1        -0.0969093968
    3    2         0.3327744048
    3    3        -7.2613532490
    3    6         1.7116539863
    3    7         0.7446515020
    3   10         1.6184399807
    4    4        -8.3702207135
    4    8         1.6029768602
    4    9         0.6539095929
    5    5        -8.3702207135
    5    8        -0.6539095929
    5    9         1.6029768602
    6    1        -0.1295825743
    6    2         0.7240944579
    6    3         1.7116539863
    6    6        -4.3486038750
    6    7        -1.1887711244
    6   10        -0.5897819241
    7    1        -0.0210626012
    7    2         0.0994970711
    7    3         0.7446515020
    7    6        -1.1887711244
    7    7        -3.2452595933
    7   10        -0.4736318200
    8    4         1.6029768602
    8    5        -0.6539095929
    8    8        -4.3423805587
    9    4         0.6539095929
    9    5         1.6029768602
    9    9        -4.3423805587
   10    1         0.3055495487
   10    2        -0.9431066936
   10    3         1.6184399807
   10    6        -0.5897819241
   10    7        -0.4736318200
   10   10        -5.1262233031
 end_one_electron_integrals
 begin_two_electron_integrals
    1    1    1    1        5.3565640342
    2    1    1    1       -0.5343904323
    2    2    1    1        1.2664477286
    2    1    2    1        0.0848535269
    2    2    2    1       -0.0235743926
    2    2    2    2        0.8786300935
    3    1    1    1        0.0728909447
    3    2    1    1       -0.0849738941
    3    3    1    1        0.9823405032
    3    1    2    1       -0.0113398405
    3    1    2    2        0.0054312195
    3    2    2    1        0.0038868118
    3    2    2    2       -0.0293584279
    3    3    2    1       -0.0110737490
    3    3    2    2        0.7290891371
    3    1    3    1        0.0258348004
    3    2    3    1        0.0267827235
    3    2    3    2        0.1373071046
    3    3    3    1       -0.0019071808
    3    3    3    2       -0.0176579900
    3    3    3    3        0.6852702732
    4    4    1    1        1.2261798875
    4    4    2    1       -0.0161126198
    4    4    2    2        0.8530250137
    4    4    3    1        0.0024302116
    4    4    3    2       -0.0417812857
    4    4    3    3        0.6845377173
    4    1    4    1        0.0370383745
    4    2    4    1        0.0394657572
    4    2    4    2        0.1646130889
    4    3    4    1       -0.0050260675
    4    3    4    2       -0.0170611435
    4    3    4    3        0.0319371603
    4    4    4    4        0.8844700397
    5    5    1    1        1.2261798875
    5    5    2    1       -0.0161126198
    5    5    2    2        0.8530250137
    5    5    3    1        0.0024302116
    5    5    3    2       -0.0417812857
    5    5    3    3        0.6845377173
    5    5    4    4        0.8022418046
    5    1    5    1        0.0370383745
    5    2    5    1        0.0394657572
    5    2    5    2        0.1646130889
    5    3    5    1       -0.0050260675
    5    3    5    2       -0.0170611435
    5    3    5    3        0.0319371603
    5    4    5    4        0.0391033254
    5    5    5    5        0.8844700397
    6    1    1    1        0.0986872006
    6    2    1    1       -0.1408962830
    6    3    1    1       -0.3115172559
    6    6    1    1        0.5490445662
    6    1    2    1       -0.0169080901
    6    1    2    2        0.0023776850
    6    2    2    1        0.0032790770
    6    2    2    2       -0.0810815701
    6    3    2    1        0.0042872066
    6    3    2    2       -0.1870729848
    6    6    2    1       -0.0045524879
    6    6    2    2        0.4515039739
    6    1    3    1       -0.0135869798
    6    1    3    2       -0.0181303069
    6    1    3    3        0.0040729999
    6    2    3    1       -0.0157738642
    6    2    3    2       -0.0562871667
    6    2    3    3       -0.0386348471
    6    3    3    1       -0.0004237341
    6    3    3    2        0.0385625398
    6    3    3    3       -0.1165769722
    6    6    3    1        0.0076161749
    6    6    3    2        0.0451572049
    6    6    3    3        0.4634357143
    6    1    4    4        0.0020943936
    6    2    4    4       -0.0746205872
    6    3    4    4       -0.1724691765
    6    4    4    1       -0.0061831527
    6    4    4    2       -0.0201299763
    6    4    4    3       -0.0145043135
    6    6    4    4        0.4290084292
    6    1    5    5        0.0020943936
    6    2    5    5       -0.0746205872
    6    3    5    5       -0.1724691765
    6    5    5    1       -0.0061831527
    6    5    5    2       -0.0201299763
    6    5    5    3       -0.0145043135
    6    6    5    5        0.4290084292
    6    1    6    1        0.0134698124
    6    2    6    1        0.0095032515
    6    2    6    2        0.0537301689
    6    3    6    1       -0.0005148110
    6    3    6    2        0.0304305533
    6    3    6    3        0.1211257324
    6    4    6    4        0.0195557894
    6    5    6    5        0.0195557894
    6    6    6    1       -0.0034672887
    6    6    6    2       -0.0271911562
    6    6    6    3        0.0035352560
    6    6    6    6        0.4340390583
    7    1    1    1        0.0155832875
    7    2    1    1       -0.0226501893
    7    3    1    1       -0.1660906066
    7    6    1    1        0.1806032946
    7    7    1    1        0.4171716825
    7    1    2    1       -0.0029289634
    7    1    2    2       -0.0004108605
    7    2    2    1        0.0003752779
    7    2    2    2       -0.0107574159
    7    3    2    1        0.0037750140
    7    3    2    2       -0.0743733017
    7    6    2    1       -0.0028085802
    7    6    2    2        0.1220257789
    7    7    2    1       -0.0017617913
    7    7    2    2        0.3863381853
    7    1    3    1       -0.0105423872
    7    1    3    2       -0.0116769017
    7    1    3    3        0.0022108828
    7    2    3    1       -0.0085156859
    7    2    3    2       -0.0240026789
    7    2    3    3        0.0154608776
    7    3    3    1        0.0032137598
    7    3    3    2        0.0483989195
    7    3    3    3       -0.0157392022
    7    6    3    1        0.0025230722
    7    6    3    2        0.0173693744
    7    6    3    3        0.1365961890
    7    7    3    1        0.0041436694
    7    7    3    2        0.0631987608
    7    7    3    3        0.4516382461
    7    1    4    4        0.0000737114
    7    2    4    4       -0.0131237345
    7    3    4    4       -0.0738016941
    7    4    4    1       -0.0024289300
    7    4    4    2       -0.0136542589
    7    4    4    3       -0.0084494024
    7    6    4    4        0.1087724387
    7    7    4    4        0.3649730741
    7    1    5    5        0.0000737114
    7    2    5    5       -0.0131237345
    7    3    5    5       -0.0738016941
    7    5    5    1       -0.0024289300
    7    5    5    2       -0.0136542589
    7    5    5    3       -0.0084494024
    7    6    5    5        0.1087724387
    7    7    5    5        0.3649730741
    7    1    6    1        0.0075720203
    7    1    6    2        0.0065419096
    7    1    6    3       -0.0002104760
    7    1    6    6       -0.0026100787
    7    2    6    1        0.0055529741
    7    2    6    2        0.0242170715
    7    2    6    3        0.0117131125
    7    2    6    6        0.0063735756
    7    3    6    1       -0.0028241406
    7    3    6    2        0.0105305983
    7    3    6    3        0.0826465332
    7    3    6    6        0.0385551185
    7    4    6    4        0.0089422859
    7    5    6    5        0.0089422859
    7    6    6    1       -0.0008355802
    7    6    6    2       -0.0099595290
    7    6    6    3       -0.0022116999
    7    6    6    6        0.0912405375
    7    7    6    1       -0.0019831693
    7    7    6    2       -0.0058336102
    7    7    6    3        0.0649532526
    7    7    6    6        0.4445544816
    7    1    7    1        0.0049377717
    7    2    7    1        0.0037276418
    7    2    7    2        0.0171907613
    7    3    7    1       -0.0016449805
    7    3    7    2        0.0140182135
    7    3    7    3        0.0887015665
    7    4    7    4        0.0071880020
    7    5    7    5        0.0071880020
    7    6    7    1       -0.0007176350
    7    6    7    2        0.0119184187
    7    6    7    3        0.0420834230
    7    6    7    6        0.0827893648
    7    7    7    1       -0.0013758225
    7    7    7    2        0.0273312123
    7    7    7    3        0.1161224329
    7    7    7    6        0.1361877563
    7    7    7    7        0.5546589623
    8    4    1    1       -0.3650648664
    8    5    1    1        0.1489225603
    8    8    1    1        0.7392394680
    8    4    2    1        0.0102695943
    8    4    2    2       -0.1531559004
    8    5    2    1       -0.0041893220
    8    5    2    2        0.0624775784
    8    8    2    1       -0.0102798837
    8    8    2    2        0.5580417979
    8    4    3    1        0.0006483679
    8    4    3    2        0.0292641709
    8    4    3    3       -0.0939415886
    8    5    3    1       -0.0002644916
    8    5    3    2       -0.0119378655
    8    5    3    3        0.0383220167
    8    8    3    1        0.0042257756
    8    8    3    2        0.0410492690
    8    8    3    3        0.5516295443
    8    1    4    1       -0.0296035302
    8    1    4    2       -0.0282129036
    8    1    4    3        0.0037990223
    8    2    4    1       -0.0163447300
    8    2    4    2       -0.0357225596
    8    2    4    3        0.0115263640
    8    3    4    1        0.0047613687
    8    3    4    2        0.0250811989
    8    3    4    3       -0.0013556011
    8    4    4    4       -0.1650726977
    8    5    4    4        0.0584093872
    8    6    4    1        0.0039526357
    8    6    4    2        0.0212112527
    8    6    4    3        0.0087358650
    8    7    4    1        0.0002805608
    8    7    4    2       -0.0004038280
    8    7    4    3        0.0073884003
    8    8    4    4        0.5559090115
    8    1    5    1        0.0120763018
    8    1    5    2        0.0115090172
    8    1    5    3       -0.0015497524
    8    2    5    1        0.0066675796
    8    2    5    2        0.0145724651
    8    2    5    3       -0.0047020017
    8    3    5    1       -0.0019423266
    8    3    5    2       -0.0102314868
    8    3    5    3        0.0005529965
    8    4    5    4        0.0044917249
    8    4    5    5       -0.1431832430
    8    5    5    4       -0.0108785579
    8    5    5    5        0.0673388514
    8    6    5    1       -0.0016124165
    8    6    5    2       -0.0086528021
    8    6    5    3       -0.0035636609
    8    7    5    1       -0.0001144504
    8    7    5    2        0.0001647354
    8    7    5    3       -0.0030139835
    8    8    5    4       -0.0116375723
    8    8    5    5        0.5321283388
    8    1    6    4        0.0043349103
    8    1    6    5       -0.0017683595
    8    2    6    4        0.0092418383
    8    2    6    5       -0.0037700648
    8    3    6    4        0.0065046811
    8    3    6    5       -0.0026534839
    8    4    6    1       -0.0028520909
    8    4    6    2        0.0238477379
    8    4    6    3        0.0597724399
    8    4    6    6       -0.0313855631
    8    5    6    1        0.0011634663
    8    5    6    2       -0.0097283155
    8    5    6    3       -0.0243832415
    8    5    6    6        0.0128032545
    8    6    6    4       -0.0026242254
    8    6    6    5        0.0010705121
    8    7    6    4       -0.0023881374
    8    7    6    5        0.0009742037
    8    8    6    1        0.0000007617
    8    8    6    2       -0.0300747526
    8    8    6    3       -0.0082699262
    8    8    6    6        0.4585384557
    8    1    7    4        0.0015656550
    8    1    7    5       -0.0006386847
    8    2    7    4        0.0005081213
    8    2    7    5       -0.0002072802
    8    3    7    4        0.0029490548
    8    3    7    5       -0.0012030213
    8    4    7    1       -0.0010248516
    8    4    7    2        0.0038402569
    8    4    7    3        0.0384838585
    8    4    7    6       -0.0191214546
    8    4    7    7       -0.0024148674
    8    5    7    1        0.0004180723
    8    5    7    2       -0.0015665733
    8    5    7    3       -0.0156988943
    8    5    7    6        0.0078003014
    8    5    7    7        0.0009851078
    8    6    7    4       -0.0045049862
    8    6    7    5        0.0018377394
    8    7    7    4        0.0008161812
    8    7    7    5       -0.0003329485
    8    8    7    1       -0.0008437980
    8    8    7    2        0.0110762036
    8    8    7    3        0.0486314150
    8    8    7    6        0.1229941495
    8    8    7    7        0.4835430835
    8    1    8    1        0.0264014151
    8    2    8    1        0.0140177943
    8    2    8    2        0.0333350062
    8    3    8    1       -0.0038729490
    8    3    8    2        0.0056048469
    8    3    8    3        0.0393855240
    8    4    8    4        0.0907142519
    8    5    8    4       -0.0322785869
    8    5    8    5        0.0247549186
    8    6    8    1       -0.0030603806
    8    6    8    2        0.0084345090
    8    6    8    3        0.0308402470
    8    6    8    6        0.0417070245
    8    7    8    1       -0.0001666836
    8    7    8    2        0.0058392306
    8    7    8    3        0.0201009404
    8    7    8    6        0.0232830869
    8    7    8    7        0.0269313462
    8    8    8    4       -0.0508758806
    8    8    8    5        0.0207540278
    8    8    8    8        0.5775175769
    9    4    1    1       -0.1489225603
    9    5    1    1       -0.3650648664
    9    9    1    1        0.7392394680
    9    4    2    1        0.0041893220
    9    4    2    2       -0.0624775784
    9    5    2    1        0.0102695943
    9    5    2    2       -0.1531559004
    9    9    2    1       -0.0102798837
    9    9    2    2        0.5580417979
    9    4    3    1        0.0002644916
    9    4    3    2        0.0119378655
    9    4    3    3       -0.0383220167
    9    5    3    1        0.0006483679
    9    5    3    2        0.0292641709
    9    5    3    3       -0.0939415886
    9    9    3    1        0.0042257756
    9    9    3    2        0.0410492690
    9    9    3    3        0.5516295443
    9    1    4    1       -0.0120763018
    9    1    4    2       -0.0115090172
    9    1    4    3        0.0015497524
    9    2    4    1       -0.0066675796
    9    2    4    2       -0.0145724651
    9    2    4    3        0.0047020017
    9    3    4    1        0.0019423266
    9    3    4    2        0.0102314868
    9    3    4    3       -0.0005529965
    9    4    4    4       -0.0673388514
    9    5    4    4       -0.1431832430
    9    6    4    1        0.0016124165
    9    6    4    2        0.0086528021
    9    6    4    3        0.0035636609
    9    7    4    1        0.0001144504
    9    7    4    2       -0.0001647354
    9    7    4    3        0.0030139835
    9    8    4    4        0.0116375723
    9    9    4    4        0.5321283388
    9    1    5    1       -0.0296035302
    9    1    5    2       -0.0282129036
    9    1    5    3        0.0037990223
    9    2    5    1       -0.0163447300
    9    2    5    2       -0.0357225596
    9    2    5    3        0.0115263640
    9    3    5    1        0.0047613687
    9    3    5    2        0.0250811989
    9    3    5    3       -0.0013556011
    9    4    5    4       -0.0110108968
    9    4    5    5       -0.0584093872
    9    5    5    4       -0.0044377393
    9    5    5    5       -0.1650726977
    9    6    5    1        0.0039526357
    9    6    5    2        0.0212112527
    9    6    5    3        0.0087358650
    9    7    5    1        0.0002805608
    9    7    5    2       -0.0004038280
    9    7    5    3        0.0073884003
    9    8    5    4        0.0119624508
    9    8    5    5       -0.0116375723
    9    9    5    4        0.0116375723
    9    9    5    5        0.5559090115
    9    1    6    4        0.0017683595
    9    1    6    5        0.0043349103
    9    2    6    4        0.0037700648
    9    2    6    5        0.0092418383
    9    3    6    4        0.0026534839
    9    3    6    5        0.0065046811
    9    4    6    1       -0.0011634663
    9    4    6    2        0.0097283155
    9    4    6    3        0.0243832415
    9    4    6    6       -0.0128032545
    9    5    6    1       -0.0028520909
    9    5    6    2        0.0238477379
    9    5    6    3        0.0597724399
    9    5    6    6       -0.0313855631
    9    6    6    4       -0.0010705121
    9    6    6    5       -0.0026242254
    9    7    6    4       -0.0009742037
    9    7    6    5       -0.0023881374
    9    9    6    1        0.0000007617
    9    9    6    2       -0.0300747526
    9    9    6    3       -0.0082699262
    9    9    6    6        0.4585384557
    9    1    7    4        0.0006386847
    9    1    7    5        0.0015656550
    9    2    7    4        0.0002072802
    9    2    7    5        0.0005081213
    9    3    7    4        0.0012030213
    9    3    7    5        0.0029490548
    9    4    7    1       -0.0004180723
    9    4    7    2        0.0015665733
    9    4    7    3        0.0156988943
    9    4    7    6       -0.0078003014
    9    4    7    7       -0.0009851078
    9    5    7    1       -0.0010248516
    9    5    7    2        0.0038402569
    9    5    7    3        0.0384838585
    9    5    7    6       -0.0191214546
    9    5    7    7       -0.0024148674
    9    6    7    4       -0.0018377394
    9    6    7    5       -0.0045049862
    9    7    7    4        0.0003329485
    9    7    7    5        0.0008161812
    9    9    7    1       -0.0008437980
    9    9    7    2        0.0110762036
    9    9    7    3        0.0486314150
    9    9    7    6        0.1229941495
    9    9    7    7        0.4835430835
    9    4    8    4        0.0322785869
    9    4    8    5        0.0011512037
    9    4    8    8       -0.0196304478
    9    5    8    4        0.0648081295
    9    5    8    5       -0.0322785869
    9    5    8    8       -0.0481215659
    9    8    8    4       -0.0005808473
    9    8    8    5       -0.0014238738
    9    9    8    4       -0.0481215659
    9    9    8    5        0.0196304478
    9    9    8    8        0.5283275032
    9    1    9    1        0.0264014151
    9    2    9    1        0.0140177943
    9    2    9    2        0.0333350062
    9    3    9    1       -0.0038729490
    9    3    9    2        0.0056048469
    9    3    9    3        0.0393855240
    9    4    9    4        0.0247549186
    9    5    9    4        0.0322785869
    9    5    9    5        0.0907142519
    9    6    9    1       -0.0030603806
    9    6    9    2        0.0084345090
    9    6    9    3        0.0308402470
    9    6    9    6        0.0417070245
    9    7    9    1       -0.0001666836
    9    7    9    2        0.0058392306
    9    7    9    3        0.0201009404
    9    7    9    6        0.0232830869
    9    7    9    7        0.0269313462
    9    8    9    4       -0.0013304409
    9    8    9    5        0.0005427328
    9    8    9    8        0.0245950368
    9    9    9    4       -0.0207540278
    9    9    9    5       -0.0508758806
    9    9    9    9        0.5775175769
   10    1    1    1       -0.2379317616
   10    2    1    1        0.2315684765
   10    3    1    1       -0.3621840254
   10    6    1    1        0.1469951134
   10    7    1    1        0.1216894821
   10   10    1    1        0.9489145243
   10    1    2    1        0.0381165061
   10    1    2    2       -0.0118816502
   10    2    2    1       -0.0102616786
   10    2    2    2        0.0892944684
   10    3    2    1        0.0113859531
   10    3    2    2       -0.1499659585
   10    6    2    1       -0.0048933466
   10    6    2    2        0.0482269722
   10    7    2    1       -0.0045792923
   10    7    2    2        0.0380349933
   10   10    2    1       -0.0176130548
   10   10    2    2        0.6547489262
   10    1    3    1       -0.0328916640
   10    1    3    2       -0.0259100620
   10    1    3    3       -0.0006477565
   10    2    3    1       -0.0126422350
   10    2    3    2       -0.0392072660
   10    2    3    3        0.0587470791
   10    3    3    1        0.0044278834
   10    3    3    2        0.0007248048
   10    3    3    3       -0.1247232495
   10    6    3    1        0.0008999614
   10    6    3    2        0.0140574728
   10    6    3    3        0.0446045796
   10    7    3    1       -0.0029103591
   10    7    3    2       -0.0217683187
   10    7    3    3        0.0202433383
   10   10    3    1       -0.0143054354
   10   10    3    2       -0.1046123754
   10   10    3    3        0.5960670972
   10    1    4    4       -0.0059593599
   10    2    4    4        0.0950494200
   10    3    4    4       -0.1379257566
   10    4    4    1        0.0132655967
   10    4    4    2        0.0314195006
   10    4    4    3       -0.0100845271
   10    6    4    4        0.0417286893
   10    7    4    4        0.0381874104
   10    8    4    1       -0.0102740739
   10    8    4    2       -0.0352397348
   10    8    4    3        0.0160873005
   10    9    4    1       -0.0041911494
   10    9    4    2       -0.0143755042
   10    9    4    3        0.0065625652
   10   10    4    4        0.6382372460
   10    1    5    5       -0.0059593599
   10    2    5    5        0.0950494200
   10    3    5    5       -0.1379257566
   10    5    5    1        0.0132655967
   10    5    5    2        0.0314195006
   10    5    5    3       -0.0100845271
   10    6    5    5        0.0417286893
   10    7    5    5        0.0381874104
   10    8    5    1        0.0041911494
   10    8    5    2        0.0143755042
   10    8    5    3       -0.0065625652
   10    9    5    1       -0.0102740739
   10    9    5    2       -0.0352397348
   10    9    5    3        0.0160873005
   10   10    5    5        0.6382372460
   10    1    6    1        0.0100655224
   10    1    6    2        0.0164803583
   10    1    6    3        0.0018227729
   10    1    6    6       -0.0086762365
   10    2    6    1        0.0108897057
   10    2    6    2        0.0036955233
   10    2    6    3       -0.0224976237
   10    2    6    6        0.0174539813
   10    3    6    1       -0.0058298700
   10    3    6    2        0.0213922569
   10    3    6    3        0.0432904812
   10    3    6    6       -0.0575250749
   10    4    6    4       -0.0014244902
   10    5    6    5       -0.0014244902
   10    6    6    1        0.0007256202
   10    6    6    2       -0.0133743507
   10    6    6    3       -0.0052605793
   10    6    6    6        0.0412219715
   10    7    6    1        0.0029253261
   10    7    6    2       -0.0027181181
   10    7    6    3       -0.0252229165
   10    7    6    6        0.0022022316
   10    8    6    4       -0.0030936753
   10    8    6    5        0.0012620170
   10    9    6    4       -0.0012620170
   10    9    6    5       -0.0030936753
   10   10    6    1        0.0130987820
   10   10    6    2       -0.0061535328
   10   10    6    3       -0.1432256079
   10   10    6    6        0.3650541296
   10    1    7    1        0.0108681226
   10    1    7    2        0.0086602126
   10    1    7    3       -0.0019103149
   10    1    7    6       -0.0032684312
   10    1    7    7       -0.0042970702
   10    2    7    1        0.0063194734
   10    2    7    2        0.0072227757
   10    2    7    3       -0.0228837574
   10    2    7    6        0.0079536215
   10    2    7    7        0.0078198148
   10    3    7    1       -0.0032429116
   10    3    7    2       -0.0047037812
   10    3    7    3        0.0176169772
   10    3    7    6       -0.0356877518
   10    3    7    7       -0.0545020224
   10    4    7    4        0.0021923206
   10    5    7    5        0.0021923206
   10    6    7    1        0.0001684390
   10    6    7    2       -0.0019394827
   10    6    7    3       -0.0048760021
   10    6    7    6        0.0136012930
   10    6    7    7        0.0313880046
   10    7    7    1        0.0016193709
   10    7    7    2       -0.0026963117
   10    7    7    3       -0.0272548257
   10    7    7    6       -0.0032171139
   10    7    7    7       -0.0245459173
   10    8    7    4       -0.0017625565
   10    8    7    5        0.0007190076
   10    9    7    4       -0.0007190076
   10    9    7    5       -0.0017625565
   10   10    7    1        0.0074559253
   10   10    7    2        0.0157937360
   10   10    7    3       -0.0599125655
   10   10    7    6        0.0888200885
   10   10    7    7        0.3228125269
   10    1    8    4        0.0017291902
   10    1    8    5       -0.0007053964
   10    1    8    8       -0.0065581317
   10    2    8    4       -0.0449631427
   10    2    8    5        0.0183420180
   10    2    8    8        0.0385457237
   10    3    8    4        0.0549972489
   10    3    8    5       -0.0224352762
   10    3    8    8       -0.0837337014
   10    4    8    1       -0.0097593518
   10    4    8    2       -0.0186966259
   10    4    8    3        0.0123008220
   10    4    8    6       -0.0024062454
   10    4    8    7       -0.0022088233
   10    5    8    1        0.0039811765
   10    5    8    2        0.0076269991
   10    5    8    3       -0.0050179299
   10    5    8    6        0.0009815906
   10    5    8    7        0.0009010553
   10    6    8    4       -0.0210400487
   10    6    8    5        0.0085829621
   10    6    8    8        0.0392096282
   10    7    8    4       -0.0220981927
   10    7    8    5        0.0090146156
   10    7    8    8       -0.0018267697
   10    8    8    1        0.0084508525
   10    8    8    2        0.0111338007
   10    8    8    3       -0.0074330975
   10    8    8    6        0.0002013515
   10    8    8    7        0.0014320338
   10   10    8    4       -0.0972526867
   10   10    8    5        0.0396727279
   10   10    8    8        0.4374597020
   10    1    9    4        0.0007053964
   10    1    9    5        0.0017291902
   10    1    9    9       -0.0065581317
   10    2    9    4       -0.0183420180
   10    2    9    5       -0.0449631427
   10    2    9    9        0.0385457237
   10    3    9    4        0.0224352762
   10    3    9    5        0.0549972489
   10    3    9    9       -0.0837337014
   10    4    9    1       -0.0039811765
   10    4    9    2       -0.0076269991
   10    4    9    3        0.0050179299
   10    4    9    6       -0.0009815906
   10    4    9    7       -0.0009010553
   10    5    9    1       -0.0097593518
   10    5    9    2       -0.0186966259
   10    5    9    3        0.0123008220
   10    5    9    6       -0.0024062454
   10    5    9    7       -0.0022088233
   10    6    9    4       -0.0085829621
   10    6    9    5       -0.0210400487
   10    6    9    9        0.0392096282
   10    7    9    4       -0.0090146156
   10    7    9    5       -0.0220981927
   10    7    9    9       -0.0018267697
   10    9    9    1        0.0084508525
   10    9    9    2        0.0111338007
   10    9    9    3       -0.0074330975
   10    9    9    6        0.0002013515
   10    9    9    7        0.0014320338
   10   10    9    4       -0.0396727279
   10   10    9    5       -0.0972526867
   10   10    9    9        0.4374597020
   10    1   10    1        0.0478240213
   10    2   10    1        0.0104511999
   10    2   10    2        0.0549317516
   10    3   10    1       -0.0019224550
   10    3   10    2       -0.0524020992
   10    3   10    3        0.0917470060
   10    4   10    4        0.0256161691
   10    5   10    5        0.0256161691
   10    6   10    1       -0.0021481657
   10    6   10    2        0.0226116489
   10    6   10    3       -0.0411746769
   10    6   10    6        0.0305713938
   10    7   10    1        0.0015376620
   10    7   10    2        0.0178986004
   10    7   10    3       -0.0174574105
   10    7   10    6        0.0123796575
   10    7   10    7        0.0177695142
   10    8   10    4       -0.0081943357
   10    8   10    5        0.0033427524
   10    8   10    8        0.0192135223
   10    9   10    4       -0.0033427524
   10    9   10    5       -0.0081943357
   10    9   10    9        0.0192135223
   10   10   10    1        0.0089068721
   10   10   10    2        0.0493531361
   10   10   10    3       -0.0703832825
   10   10   10    6        0.0030985435
   10   10   10    7        0.0316182640
   10   10   10   10        0.6495202926
 end_two_electron_integrals
 fcidump
      5.3565640342     1   1   1   1
     -0.5343904323     2   1   1   1
      0.0848535269     2   1   2   1
      1.2664477286     2   2   1   1
     -0.0235743926     2   2   2   1
      0.8786300935     2   2   2   2
      0.0728909447     3   1   1   1
     -0.0113398405     3   1   2   1
      0.0054312195     3   1   2   2
      0.0258348004     3   1   3   1
     -0.0849738941     3   2   1   1
      0.0038868118     3   2   2   1
     -0.0293584279     3   2   2   2
      0.0267827235     3   2   3   1
      0.1373071046     3   2   3   2
      0.9823405032     3   3   1   1
     -0.0110737490     3   3   2   1
      0.7290891371     3   3   2   2
     -0.0019071808     3   3   3   1
     -0.0176579900     3   3   3   2
      0.6852702732     3   3   3   3
      0.0370383745     4   1   4   1
      0.0394657572     4   2   4   1
      0.1646130889     4   2   4   2
     -0.0050260675     4   3   4   1
     -0.0170611435     4   3   4   2
      0.0319371603     4   3   4   3
      1.2261798875     4   4   1   1
     -0.0161126198     4   4   2   1
      0.8530250137     4   4   2   2
      0.0024302116     4   4   3   1
     -0.0417812857     4   4   3   2
      0.6845377173     4   4   3   3
      0.8844700397     4   4   4   4
      0.0370383745     5   1   5   1
      0.0394657572     5   2   5   1
      0.1646130889     5   2   5   2
     -0.0050260675     5   3   5   1
     -0.0170611435     5   3   5   2
      0.0319371603     5   3   5   3
      0.0391033254     5   4   5   4
      1.2261798875     5   5   1   1
     -0.0161126198     5   5   2   1
      0.8530250137     5   5   2   2
      0.0024302116     5   5   3   1
     -0.0417812857     5   5   3   2
      0.6845377173     5   5   3   3
      0.8022418046     5   5   4   4
      0.8844700397     5   5   5   5
      0.0986872006     6   1   1   1
     -0.0169080901     6   1   2   1
      0.0023776850     6   1   2   2
     -0.0135869798     6   1   3   1
     -0.0181303069     6   1   3   2
      0.0040729999     6   1   3   3
      0.0020943936     6   1   4   4
      0.0020943936     6   1   5   5
      0.0134698124     6   1   6   1
     -0.1408962830     6   2   1   1
      0.0032790770     6   2   2   1
     -0.0810815701     6   2   2   2
     -0.0157738642     6   2   3   1
     -0.0562871667     6   2   3   2
     -0.0386348471     6   2   3   3
     -0.0746205872     6   2   4   4
     -0.0746205872     6   2   5   5
      0.0095032515     6   2   6   1
      0.0537301689     6   2   6   2
     -0.3115172559     6   3   1   1
      0.0042872066     6   3   2   1
     -0.1870729848     6   3   2   2
     -0.0004237341     6   3   3   1
      0.0385625398     6   3   3   2
     -0.1165769722     6   3   3   3
     -0.1724691765     6   3   4   4
     -0.1724691765     6   3   5   5
     -0.0005148110     6   3   6   1
      0.0304305533     6   3   6   2
      0.1211257324     6   3   6   3
     -0.0061831527     6   4   4   1
     -0.0201299763     6   4   4   2
     -0.0145043135     6   4   4   3
      0.0195557894     6   4   6   4
     -0.0061831527     6   5   5   1
     -0.0201299763     6   5   5   2
     -0.0145043135     6   5   5   3
      0.0195557894     6   5   6   5
      0.5490445662     6   6   1   1
     -0.0045524879     6   6   2   1
      0.4515039739     6   6   2   2
      0.0076161749     6   6   3   1
      0.0451572049     6   6   3   2
      0.4634357143     6   6   3   3
      0.4290084292     6   6   4   4
      0.4290084292     6   6   5   5
     -0.0034672887     6   6   6   1
     -0.0271911562     6   6   6   2
      0.0035352560     6   6   6   3
      0.4340390583     6   6   6   6
      0.0155832875     7   1   1   1
     -0.0029289634     7   1   2   1
     -0.0004108605     7   1   2   2
     -0.0105423872     7   1   3   1
     -0.0116769017     7   1   3   2
      0.0022108828     7   1   3   3
      0.0000737114     7   1   4   4
      0.0000737114     7   1   5   5
      0.0075720203     7   1   6   1
      0.0065419096     7   1   6   2
     -0.0002104760     7   1   6   3
     -0.0026100787     7   1   6   6
      0.0049377717     7   1   7   1
     -0.0226501893     7   2   1   1
      0.0003752779     7   2   2   1
     -0.0107574159     7   2   2   2
     -0.0085156859     7   2   3   1
     -0.0240026789     7   2   3   2
      0.0154608776     7   2   3   3
     -0.0131237345     7   2   4   4
     -0.0131237345     7   2   5   5
      0.0055529741     7   2   6   1
      0.0242170715     7   2   6   2
      0.0117131125     7   2   6   3
      0.0063735756     7   2   6   6
      0.0037276418     7   2   7   1
      0.0171907613     7   2   7   2
     -0.1660906066     7   3   1   1
      0.0037750140     7   3   2   1
     -0.0743733017     7   3   2   2
      0.0032137598     7   3   3   1
      0.0483989195     7   3   3   2
     -0.0157392022     7   3   3   3
     -0.0738016941     7   3   4   4
     -0.0738016941     7   3   5   5
     -0.0028241406     7   3   6   1
      0.0105305983     7   3   6   2
      0.0826465332     7   3   6   3
      0.0385551185     7   3   6   6
     -0.0016449805     7   3   7   1
      0.0140182135     7   3   7   2
      0.0887015665     7   3   7   3
     -0.0024289300     7   4   4   1
     -0.0136542589     7   4   4   2
     -0.0084494024     7   4   4   3
      0.0089422859     7   4   6   4
      0.0071880020     7   4   7   4
     -0.0024289300     7   5   5   1
     -0.0136542589     7   5   5   2
     -0.0084494024     7   5   5   3
      0.0089422859     7   5   6   5
      0.0071880020     7   5   7   5
      0.1806032946     7   6   1   1
     -0.0028085802     7   6   2   1
      0.1220257789     7   6   2   2
      0.0025230722     7   6   3   1
      0.0173693744     7   6   3   2
      0.1365961890     7   6   3   3
      0.1087724387     7   6   4   4
      0.1087724387     7   6   5   5
     -0.0008355802     7   6   6   1
     -0.0099595290     7   6   6   2
     -0.0022116999     7   6   6   3
      0.0912405375     7   6   6   6
     -0.0007176350     7   6   7   1
      0.0119184187     7   6   7   2
      0.0420834230     7   6   7   3
      0.0827893648     7   6   7   6
      0.4171716825     7   7   1   1
     -0.0017617913     7   7   2   1
      0.3863381853     7   7   2   2
      0.0041436694     7   7   3   1
      0.0631987608     7   7   3   2
      0.4516382461     7   7   3   3
      0.3649730741     7   7   4   4
      0.3649730741     7   7   5   5
     -0.0019831693     7   7   6   1
     -0.0058336102     7   7   6   2
      0.0649532526     7   7   6   3
      0.4445544816     7   7   6   6
     -0.0013758225     7   7   7   1
      0.0273312123     7   7   7   2
      0.1161224329     7   7   7   3
      0.1361877563     7   7   7   6
      0.5546589623     7   7   7   7
     -0.0296035302     8   1   4   1
     -0.0282129036     8   1   4   2
      0.0037990223     8   1   4   3
      0.0120763018     8   1   5   1
      0.0115090172     8   1   5   2
     -0.0015497524     8   1   5   3
      0.0043349103     8   1   6   4
     -0.0017683595     8   1   6   5
      0.0015656550     8   1   7   4
     -0.0006386847     8   1   7   5
      0.0264014151     8   1   8   1
     -0.0163447300     8   2   4   1
     -0.0357225596     8   2   4   2
      0.0115263640     8   2   4   3
      0.0066675796     8   2   5   1
      0.0145724651     8   2   5   2
     -0.0047020017     8   2   5   3
      0.0092418383     8   2   6   4
     -0.0037700648     8   2   6   5
      0.0005081213     8   2   7   4
     -0.0002072802     8   2   7   5
      0.0140177943     8   2   8   1
      0.0333350062     8   2   8   2
      0.0047613687     8   3   4   1
[...]
 tce:restart_ignore_failure           logical[4]      Tue Jul 30 17:25:39 2019 
 tce:guess_lr_real                    logical[1]      Tue Jul 30 17:25:39 2019 
 basis:ao basis:tags info                 int[280]    Tue Jul 30 17:25:39 2019 
 tce:skip_t                           logical[1]      Tue Jul 30 17:25:39 2019 
 tce:hbard                                int[1]      Tue Jul 30 17:25:39 2019 
 tce:diagnt1                          logical[1]      Tue Jul 30 17:25:39 2019 
 geometry:geometry:zmt_ijkang_frz        logical[160]    Tue Jul 30 17:25:39 2019 
 tce:read_integrals                   logical[5]      Tue Jul 30 17:25:39 2019 
 tce:bnumfreq                             int[1]      Tue Jul 30 17:25:39 2019 
 tce:ccsdvar                             char[5]      Tue Jul 30 17:25:39 2019 
 tce:lineresp                         logical[1]      Tue Jul 30 17:25:39 2019 
 tce:save_l                           logical[4]      Tue Jul 30 17:25:39 2019 
 tce:ichopx                               int[1]      Tue Jul 30 17:25:39 2019 
 tce:nogamma                          logical[1]      Tue Jul 30 17:25:39 2019 
 scf:dipole                            double[3]      Tue Jul 30 17:25:39 2019 
 geometry:ngeom                           int[1]      Tue Jul 30 17:25:39 2019 
 tce:uact                                 int[1]      Tue Jul 30 17:25:39 2019 
 geometry:geometry:zmt_ijklto             int[640]    Tue Jul 30 17:25:39 2019 
 tce:save_tr                          logical[8]      Tue Jul 30 17:25:39 2019 
 geometry:geometry:zmt_ijklnb             int[640]    Tue Jul 30 17:25:39 2019 
 geometry:geometry:operators           double[2304]   Tue Jul 30 17:25:39 2019 
 tce:zlshiftl                          double[1]      Tue Jul 30 17:25:39 2019 
 tce:skip_tr                          logical[1]      Tue Jul 30 17:25:39 2019 
 basis:ao basis:star nr tags              int[1]      Tue Jul 30 17:25:39 2019 
 geometry:geometry:zmt_ijkang_val         double[160]    Tue Jul 30 17:25:39 2019 
 tce:anumfreq                             int[1]      Tue Jul 30 17:25:39 2019 
 geometry:geometry:zmt_ijklto_nam           char[160]    Tue Jul 30 17:25:39 2019 
 geometry:geometry:zmt_ijklop_frz        logical[160]    Tue Jul 30 17:25:39 2019 
 tce:save_t                           logical[4]      Tue Jul 30 17:25:39 2019 
 geometry:geometry:zmt_varsign         double[1]      Tue Jul 30 17:25:39 2019 
 geometry:geometry:recip vectors         double[3]      Tue Jul 30 17:25:39 2019 
 tce:model                               char[5]      Tue Jul 30 17:25:39 2019 
 tce:maxiter                              int[1]      Tue Jul 30 17:25:39 2019 
 tce:symmetry                         logical[1]      Tue Jul 30 17:25:39 2019 
 tce:save_x                           logical[4]      Tue Jul 30 17:25:39 2019 
 geometry:geometry:no. unique centers            int[1]      Tue Jul 30 17:25:39 2019 
 basis:ao basis:contraction info            int[90000]  Tue Jul 30 17:25:39 2019 
 tce:save_y                           logical[4]      Tue Jul 30 17:25:39 2019 
 geometry:geometry:zmt_izmat              int[3]      Tue Jul 30 17:25:39 2019 
 basis:ao basis:bs_nr_tags                int[1]      Tue Jul 30 17:25:39 2019 
 geometry:geometry:zmt_ijklop_val         double[160]    Tue Jul 30 17:25:39 2019 
 geometry:geometry:group number            int[1]      Tue Jul 30 17:25:39 2019 
 tce:nactv                                int[1]      Tue Jul 30 17:25:39 2019 
 tce:active_va                            int[1]      Tue Jul 30 17:25:39 2019 
 geometry:geometry:recip angles         double[3]      Tue Jul 30 17:25:39 2019 
 tce:active_vb                            int[1]      Tue Jul 30 17:25:39 2019 
 tce:active_oa                            int[1]      Tue Jul 30 17:25:39 2019 
 tce:active_ob                            int[1]      Tue Jul 30 17:25:39 2019 
 geometry:geometry:zmt_varname           char[2]      Tue Jul 30 17:25:39 2019 
 tce:thresh                            double[1]      Tue Jul 30 17:25:39 2019 
 geometry:geometry:system type            int[1]      Tue Jul 30 17:25:39 2019 
 tce:energy                            double[1]      Tue Jul 30 17:25:50 2019 
 tce:nopolar                          logical[1]      Tue Jul 30 17:25:39 2019 
 basis:ao basis:bs_stdname               char[16]     Tue Jul 30 17:25:39 2019 
 geometry:geometry:charges             double[2]      Tue Jul 30 17:25:39 2019 
 tce:respaxis                         logical[3]      Tue Jul 30 17:25:39 2019 
 tce:perturbative                        char[5]      Tue Jul 30 17:25:39 2019 
 scf:multiplicity                        char[8]      Tue Jul 30 17:25:39 2019 
 geometry:geometry:zmt_nizmat             int[1]      Tue Jul 30 17:25:39 2019 
 scf:output vectors                      char[24]     Tue Jul 30 17:25:39 2019 
 basis:ao basis:header                    int[7]      Tue Jul 30 17:25:39 2019 
 geometry:geometry:zmt_cvr_scaling         double[1]      Tue Jul 30 17:25:39 2019 
 geometry:geometry:tags                  char[4]      Tue Jul 30 17:25:39 2019 
 scf:input vectors                       char[24]     Tue Jul 30 17:25:39 2019 
 geometry:geometry:zmt_ijklnb_nam           char[160]    Tue Jul 30 17:25:39 2019 
 geometry:geometry:zmt_ijklto_frz        logical[160]    Tue Jul 30 17:25:39 2019 
 geometry:geometry:include_bqbq        logical[1]      Tue Jul 30 17:25:39 2019 
 tce:qducc                            logical[1]      Tue Jul 30 17:25:39 2019 
 geometry:geometry:zmt_ijklop             int[640]    Tue Jul 30 17:25:39 2019 
 geometry:geometry:group name            char[3]      Tue Jul 30 17:25:39 2019 
 tce:model2e                             char[6]      Tue Jul 30 17:25:39 2019 
 tce:eactmax                           double[1]      Tue Jul 30 17:25:39 2019 
 tce:zlshift2                          double[2]      Tue Jul 30 17:25:39 2019 
 tce:eactmin                           double[1]      Tue Jul 30 17:25:39 2019 
 basisprint:ao basis                  logical[1]      Tue Jul 30 17:25:39 2019 
 tce:oact                                 int[1]      Tue Jul 30 17:25:39 2019 
 tce:zlshift3                          double[2]      Tue Jul 30 17:25:39 2019 
 tce:densmat                          logical[1]      Tue Jul 30 17:25:39 2019 
 tce:nroots                               int[1]      Tue Jul 30 17:25:39 2019 
 geometry:geometry:zmt_ijklto_val         double[160]    Tue Jul 30 17:25:39 2019 
 geometry:geometry:zmt_maxtor             int[1]      Tue Jul 30 17:25:39 2019 
 scf:converged                        logical[1]      Tue Jul 30 17:25:39 2019 
 scf:nelec                                int[1]      Tue Jul 30 17:25:39 2019 
 tce:maxdiff                           double[1]      Tue Jul 30 17:25:39 2019 
 tce:guess_qr_real                    logical[1]      Tue Jul 30 17:25:39 2019 
 basis:ao basis:number of exps and coeffs            int[1]      Tue Jul 30 17:25:39 2019 
 geometry:names                          char[9]      Tue Jul 30 17:25:39 2019 
 geometry:geometry:masses              double[2]      Tue Jul 30 17:25:39 2019 
 tce:zlshift                           double[1]      Tue Jul 30 17:25:39 2019 
 tce:eoms                                 int[1]      Tue Jul 30 17:25:39 2019 
 tce:ampnorms                         logical[1]      Tue Jul 30 17:25:39 2019 
 scf:scftype                             char[4]      Tue Jul 30 17:25:39 2019 
 tce:diis2                                int[1]      Tue Jul 30 17:25:39 2019 
 tce:read_l                           logical[4]      Tue Jul 30 17:25:39 2019 
 tce:enegr                             double[1]      Tue Jul 30 17:25:50 2019 
 basis:ao basis:exps and coeffs         double[54]     Tue Jul 30 17:25:39 2019 
 tce:diis3                                int[1]      Tue Jul 30 17:25:39 2019 
 geometry:geometry:unique centers            int[2]      Tue Jul 30 17:25:39 2019 
 tce:read_lr                          logical[8]      Tue Jul 30 17:25:39 2019 
 geometry:geometry:zmt_ijbond_nam           char[160]    Tue Jul 30 17:25:39 2019 
 geometry:geometry:amatrix             double[9]      Tue Jul 30 17:25:39 2019 
 geometry:geometry:inv nuc expon         double[2]      Tue Jul 30 17:25:39 2019 
 geometry:geometry:zmt_ijklnb_val         double[160]    Tue Jul 30 17:25:39 2019 
 geometry:geometry:vel                 double[6]      Tue Jul 30 17:25:39 2019 
 geometry:geometry:zmt_ijklnb_frz        logical[160]    Tue Jul 30 17:25:39 2019 
 task:status                          logical[1]      Tue Jul 30 17:25:50 2019 
 geometry:geometry:direct volume         double[1]      Tue Jul 30 17:25:39 2019 
 tce:afreq                             double[1]      Tue Jul 30 17:25:39 2019 
 geometry:geometry:num_operators            int[1]      Tue Jul 30 17:25:39 2019 
 tce:read_t                           logical[4]      Tue Jul 30 17:25:39 2019 
 tce:save_interval                        int[1]      Tue Jul 30 17:25:39 2019 
 basis:nbasis                             int[1]      Tue Jul 30 17:25:39 2019 
 file_prefix                             char[15]     Tue Jul 30 17:25:39 2019 
 geometry:geometry:primitive_center           char[2]      Tue Jul 30 17:25:39 2019 
 task:energy                           double[1]      Tue Jul 30 17:25:50 2019 
 geometry:geometry:ncenter                int[1]      Tue Jul 30 17:25:39 2019 
 tce:idiskx                               int[1]      Tue Jul 30 17:25:39 2019 
 tce:damp2                             double[1]      Tue Jul 30 17:25:39 2019 
 geometry:geometry:zmt_nzvar              int[1]      Tue Jul 30 17:25:39 2019 
 tce:quadresp                         logical[1]      Tue Jul 30 17:25:39 2019 
 tce:damp3                             double[1]      Tue Jul 30 17:25:39 2019 
 scf:thresh                            double[1]      Tue Jul 30 17:25:39 2019 
 scf:energy                            double[1]      Tue Jul 30 17:25:39 2019 
 tce:read_tr                          logical[8]      Tue Jul 30 17:25:39 2019 
 tce:read_x                           logical[4]      Tue Jul 30 17:25:39 2019 
 basis:ao basis:assoc ecp name           char[4]      Tue Jul 30 17:25:39 2019 
 tce:read_y                           logical[4]      Tue Jul 30 17:25:39 2019 
 geometry:geometry:zmt_ijbond             int[320]    Tue Jul 30 17:25:39 2019 
 geometry:geometry:zmt_source            char[6]      Tue Jul 30 17:25:39 2019 
 geometry:geometry:setting number            int[1]      Tue Jul 30 17:25:39 2019 
 tce:act_excit_lvl                        int[1]      Tue Jul 30 17:25:39 2019 
 basis:ao basis:bs_tags                  char[4]      Tue Jul 30 17:25:39 2019 
 tce:i4im                                 int[1]      Tue Jul 30 17:25:39 2019 
 scf:tol2e                             double[1]      Tue Jul 30 17:25:39 2019 
 tce:diis                                 int[1]      Tue Jul 30 17:25:39 2019 
 tce:recompf                          logical[1]      Tue Jul 30 17:25:39 2019 
 rtdb:stored:state                    logical[3]      Tue Jul 30 17:25:39 2019 
 scf:alpha irreps                         int[19]     Tue Jul 30 17:25:39 2019 
 tce:module                              char[4]      Tue Jul 30 17:25:39 2019 
 geometry:geometry:zmt_ijbond_frz        logical[160]    Tue Jul 30 17:25:39 2019 
 tce:target                               int[1]      Tue Jul 30 17:25:39 2019 
 tce:left                             logical[1]      Tue Jul 30 17:25:39 2019 


 HDBM usage statistics
 ---------------------
 Reads         = 1974
 Inserts       = 1090
 Replaces      = 374
 Extracts      = 0
 Deletes       = 2166
 Reuses        = 16

 Memory allocs = 10090
 Memory frees  = 10090
 Memory max    = 1519711
 Memory in use = 0

 IO seeks      = 4099
 IO reads      = 2988
 IO writes     = 3289
 IO nread      = 3222552
 IO nwrite     = 2392636

 Summary of allocated global arrays
-----------------------------------
  No active global arrays



                         GA Statistics for process    0
                         ------------------------------

       create   destroy   get      put      acc     scatter   gather  read&inc
calls: 2251     2251     7101     2857     3895        0        0     4610     
number of processes/call 5.55e+14 -2.57e+15 2.06e+13 0.00e+00 0.00e+00
bytes total:             1.97e+08 1.01e+07 4.75e+07 0.00e+00 0.00e+00 3.69e+04
bytes remote:            0.00e+00 0.00e+00 0.00e+00 0.00e+00 0.00e+00 0.00e+00
Max memory consumed for GA by this process: 1663800 bytes

MA_summarize_allocated_blocks: starting scan ...
MA_summarize_allocated_blocks: scan completed: 0 heap blocks, 0 stack blocks
MA usage statistics:

	allocation statistics:
					      heap	     stack
					      ----	     -----
	current number of blocks	         0	         0
	maximum number of blocks	        17	        40
	current total bytes		         0	         0
	maximum total bytes		   1060368	  55520424
	maximum total K-bytes		      1061	     55521
	maximum total M-bytes		         2	        56

	calls per routine:
		        39  MA_alloc_get
		        39  MA_allocate_heap
		       176  MA_chop_stack
		        39  MA_free_heap
		         0  MA_free_heap_piece
		     16397  MA_get_index
		         5  MA_get_mbase
		         0  MA_get_next_memhandle
		         0  MA_get_numalign
		        49  MA_get_pointer
		         1  MA_init
		         0  MA_initialized
		         0  MA_init_memhandle_iterator
		       253  MA_inquire_avail
		         1  MA_inquire_heap
		         0  MA_inquire_heap_check_stack
		         0  MA_inquire_heap_no_partition
		         1  MA_inquire_stack
		         0  MA_inquire_stack_check_heap
		         0  MA_inquire_stack_no_partition
		     16152  MA_pop_stack
		         1  MA_print_stats
		     16358  MA_push_get
		     16407  MA_push_stack
		         3  MA_set_auto_verify
		         1  MA_set_error_print
		         3  MA_set_hard_fail
		         1  MA_set_numalign
		      9321  MA_sizeof
		        25  MA_sizeof_overhead
		         1  MA_summarize_allocated_blocks
		         0  MA_trace
		     58856  MA_verify_allocator_stuff


                                     CITATION
                                     --------
                Please cite the following reference when publishing
                           results obtained with NWChem:

                 M. Valiev, E.J. Bylaska, N. Govind, K. Kowalski,
              T.P. Straatsma, H.J.J. van Dam, D. Wang, J. Nieplocha,
                        E. Apra, T.L. Windus, W.A. de Jong
                 "NWChem: a comprehensive and scalable open-source
                  solution for large scale molecular simulations"
                      Comput. Phys. Commun. 181, 1477 (2010)
                           doi:10.1016/j.cpc.2010.04.018

                                      AUTHORS
                                      -------
          E. Apra, E. J. Bylaska, W. A. de Jong, N. Govind, K. Kowalski,
       T. P. Straatsma, M. Valiev, H. J. J. van Dam, D. Wang, T. L. Windus,
        J. Hammond, J. Autschbach, K. Bhaskaran-Nair, J. Brabec, K. Lopata,
    S. A. Fischer, S. Krishnamoorthy, M. Jacquelin, W. Ma, M. Klemm, O. Villa,
      Y. Chen, V. Anisimov, F. Aquino, S. Hirata, M. T. Hackler, V. Konjkov,
            D. Mejia-Rodriguez, T. Risthaus, M. Malagoli, A. Marenich,
   A. Otero-de-la-Roza, J. Mullin, P. Nichols, R. Peverati, J. Pittner, Y. Zhao,
        P.-D. Fan, A. Fonari, M. J. Williamson, R. J. Harrison, J. R. Rehr,
      M. Dupuis, D. Silverstein, D. M. A. Smith, J. Nieplocha, V. Tipparaju,
    M. Krishnan, B. E. Van Kuiken, A. Vazquez-Mayagoitia, L. Jensen, M. Swart,
      Q. Wu, T. Van Voorhis, A. A. Auer, M. Nooijen, L. D. Crosby, E. Brown,
      G. Cisneros, G. I. Fann, H. Fruchtl, J. Garza, K. Hirao, R. A. Kendall,
      J. A. Nichols, K. Tsemekhman, K. Wolinski, J. Anchell, D. E. Bernholdt,
      P. Borowski, T. Clark, D. Clerc, H. Dachsel, M. J. O. Deegan, K. Dyall,
    D. Elwood, E. Glendening, M. Gutowski, A. C. Hess, J. Jaffe, B. G. Johnson,
     J. Ju, R. Kobayashi, R. Kutteh, Z. Lin, R. Littlefield, X. Long, B. Meng,
      T. Nakajima, S. Niu, L. Pollack, M. Rosing, K. Glaesemann, G. Sandrone,
      M. Stave, H. Taylor, G. Thomas, J. H. van Lenthe, A. T. Wong, Z. Zhang.

                                    REFERENCES
                                    ----------

          Where appropriate, please cite the following reference(s) 
          when publishing results obtained with NWChem:


     1. D. E. Bernholdt, E. Apra, H. A. Fruchtl, M.F. Guest, R. J. Harrison, 
        R. A. Kendall, R. A. Kutteh, X. Long, J. B. Nicholas, J. A. Nichols, 
        H. L. Taylor, A. T. Wong, G. I. Fann, R. J. Littlefield and
        J. Nieplocha,
        "Parallel Computational Chemistry Made Easier: 
        The Development of NWChem,"
        Int. J. Quantum Chem. Symposium  29, 475-483 (1995).


     2. M. F. Guest, E. Apra, D. E. Bernholdt, H. A. Fruchtl, R. J. Harrison, 
        R. A. Kendall, R. A. Kutteh, X. Long, J. B. Nicholas, J. A. Nichols, 
        H. L. Taylor, A. T. Wong, G. I. Fann, R. J. Littlefield and
        J. Nieplocha,
        "High Performance Computational Chemistry: NWChem and Fully Distributed
        Parallel Applications", in Advances in Parallel Computing, 10, High
        Performance Computing: Technology, Methods, and Applications, Eds. 
        J. Dongarra, L. Gradinetti, G. Joubert, and J. Kowalik, 
        (Elsevier Science B. V. pp. 395-427, 1995).


     3. M. F. Guest, E. Apra, D. E. Bernholdt, H. A. Fruchtl, R. J. Harrison, 
        R. A. Kendall, R. A. Kutteh, J. B. Nicholas, J. A. Nichols, M. S. Stave,
        A. T. Wong, R. J. Littlefield and J. Nieplocha, "High Performance 
        Computational Chemistry: Towards Fully Distributed Parallel Algorithms",
        in High Performance Computing: Symposium 1995, Grand Challenges in 
        Computer Simulation, Adrian M. Tentner, Editor, Proceedings of the 1995 
        Simulation Multiconference, April 9-13, 1995, Phoenix, Arizona, 
        Simulation Councils, Inc., The Society for Computer Simulation, 
        San Diego, CA, 1995. pp. 511-521.


     4. M. F. Guest, E. Apra, D. E. Bernholdt, H. A. Fruchtl, R. J. Harrison,
        R. A. Kendall, R. A. Kutteh, X. Long, J. B. Nicholas, J. A. Nichols, 
        H. L. Taylor, A. T. Wong, G. I. Fann, R. J. Littlefield and
        J. Nieplocha,
        "Advances in Parallel Distributed Data Software; Computational Chemistry
        and NWChem", in Applied Parallel Computing.  Computations in Physics,
        Chemistry, and Engineering Science, Eds. J. Wasnieski, J. Dongarra, and 
        K. Madsen, Lecture Notes in Computer Science, 1041,
        (Springer-Verlag, Berlin, 278-294, 1996).


     5. M. F. Guest, E. Apra, D. E. Bernholdt, H. A. Fruchtl, R. J. Harrison,
        R. A. Kendall, R. A. Kutteh, X. Long, J. B. Nicholas, J. A. Nichols, 
        H. L. Taylor, A. T. Wong, G. I. Fann, R. J. Littlefield and
        J. Nieplocha, 
        "High-Performance Computing in Chemistry; NWChem", Future 
        Generations Computer Systems  12(4), 273, (1996).


     6. R. A. Kendall, E. Apra, D. E. Bernholdt, E. J. Bylaska, M. Dupuis,
        G. I. Fann, R. J. Harrison, J. Ju, J. A. Nichols, J. Nieplocha,
        T. P. Straatsma, T. L. Windus, A. T. Wong,
        Computer Phys. Comm. 128, 260 (2000).


     7. T. P. Straatsma and V. Helms, in Molecular Dynamics on Parallel
        Computers2000, R. Esser et al. editors, p 70.


     8.  T. P. Straatsma, M. Philippopoulos and J. A. McCammon,
         Computer Phys. Comm. 128, 377 (2000).


     9.  M. Valiev, E. J. Bylaska, A. Gramada, and J. H. Weare,
         Reviews in Modern Quantum Chemistry, pages 1684-1734
         (World Scientific, Singapore, 2002).


    10.  E. J. Bylaska, M. Valiev, R. Kawai, and J. H. Weare,
         Computer Phys. Comm. 143, 11 (2002).


    11.  M. Valiev and J. H. Weare,
         J. Phys. Chem. A, 103, 10588 (1999).



 Total times  cpu:       11.0s     wall:       11.0s
