 argument  1 = originalHF.nw
  NWChem w/ OpenMP: maximum threads =    4



============================== echo of input deck ==============================
start tce_hf_0.73344

echo
memory total 6 gb
print high

geometry units angstrom
symmetry c1
H  0.0000000  0.0000  0.73344
F  0.0000000  0.0000  0.00000
end


basis spherical
H library cc-pvdz
F library cc-pvdz
end

scf
thresh 1.0e-10
tol2e 1.0e-10
singlet
rhf
end

tce
2eorb
2emet 13
thresh 1.0d-8
ccsd
end

set tce:qducc T
set tce:nactv 5

task tce energy

================================================================================


                                         
                                         


              Northwest Computational Chemistry Package (NWChem) 6.8
              ------------------------------------------------------


                    Environmental Molecular Sciences Laboratory
                       Pacific Northwest National Laboratory
                                Richland, WA 99352

                              Copyright (c) 1994-2018
                       Pacific Northwest National Laboratory
                            Battelle Memorial Institute

             NWChem is an open-source computational chemistry package
                        distributed under the terms of the
                      Educational Community License (ECL) 2.0
             A copy of the license is included with this distribution
                              in the LICENSE.TXT file

                                  ACKNOWLEDGMENT
                                  --------------

            This software and its documentation were developed at the
            EMSL at Pacific Northwest National Laboratory, a multiprogram
            national laboratory, operated for the U.S. Department of Energy
            by Battelle under Contract Number DE-AC05-76RL01830. Support
            for this work was provided by the Department of Energy Office
            of Biological and Environmental Research, Office of Basic
            Energy Sciences, and the Office of Advanced Scientific Computing.


           Job information
           ---------------

    hostname        = WE27583
    program         = /Users/lamm799/nwchem/bin/MACX64/nwchem
    date            = Tue Jul 30 17:20:50 2019

    compiled        = Mon_Jul_15_13:12:43_2019
    source          = /Users/lamm799/nwchem
    nwchem branch   = Development
    nwchem revision = nwchem_on_git-975-g459e4567d
    ga revision     = 5.7.0
    use scalapack   = F
    input           = originalHF.nw
    prefix          = tce_hf_0.73344.
    data base       = ./tce_hf_0.73344.db
    status          = startup
    nproc           =        1
    time left       =     -1s



           Memory information
           ------------------

    heap     =  201326588 doubles =   1536.0 Mbytes
    stack    =  201326593 doubles =   1536.0 Mbytes
    global   =  402653184 doubles =   3072.0 Mbytes (distinct from heap & stack)
    total    =  805306365 doubles =   6144.0 Mbytes
    verify   = yes
    hardfail = no 


           Directory information
           ---------------------

  0 permanent = .
  0 scratch   = .




                                NWChem Input Module
                                -------------------



 Scaling coordinates for geometry "geometry" by  1.889725989
 (inverse scale =  0.529177249)

 Turning off AUTOSYM since
 SYMMETRY directive was detected!

     MOLECULAR POINT GROUP NUMBER =  1     SCHOENFLIES SYMBOL = C1        

                --------------- GROUP GENERATORS ---------------

                      1 GENERATORS USED TO FORM THE GROUP

                         PT fold Rotoinversion Operator
                     1.000000  0.000000  0.000000  0.000000
                     0.000000  1.000000  0.000000  0.000000
                     0.000000  0.000000  1.000000  0.000000


The   1 symmetry operators (excl. E) are as follows:



                    ---------- FULL LISTING OF GROUP ----------

                  MATRIX REPRESENTATIONS OF THE GROUP OPERATORS

     EXCLUDING THE IDENTITY OPERATOR THERE ARE  1 OPERATORS IN THIS GROUP

                         pt fold Rotoinversion Operator
                     1.000000  0.000000  0.000000  0.000000
                     0.000000  1.000000  0.000000  0.000000
                     0.000000  0.000000  1.000000  0.000000


                  <<< SYMMETRY OPERATION/ATOM MAPPING BUILT >>>
      Symmetry information
      --------------------

 Group name             C1        
 Group number              1
 Group order               1
 No. of unique centers     2



                  Character table for group C1      

                  1e     
        a          1.000

      Symmetry unique atoms

     1    2

      Mapping of centers


      Group operations



          ------
          auto-z
          ------
  no constraints, skipping    0.0000000000000000     
 Imposing constraints:   iter = 1  dqmax = 0.0D+00
  no constraints, skipping    0.0000000000000000     


                             Geometry "geometry" -> ""
                             -------------------------

 Output coordinates in angstroms (scale by  1.889725989 to convert to a.u.)

  No.       Tag          Charge          X              Y              Z
 ---- ---------------- ---------- -------------- -------------- --------------
    1 H                    1.0000     0.00000000     0.00000000     0.66009600
    2 F                    9.0000     0.00000000     0.00000000    -0.07334400

      Atomic Mass 
      ----------- 

      H                  1.007825
      F                 18.998400


 Effective nuclear repulsion energy (a.u.)       6.4935035463

            Nuclear Dipole moment (a.u.) 
            ----------------------------
        X                 Y               Z
 ---------------- ---------------- ----------------
     0.0000000000     0.0000000000    -0.0000000000



                                Z-matrix (autoz)
                                -------- 

 Units are Angstrom for bonds and degrees for angles

      Type          Name      I     J     K     L     M      Value
      ----------- --------  ----- ----- ----- ----- ----- ----------
    1 Stretch                  1     2                       0.73344


            XYZ format geometry
            -------------------
     2
 geometry
 H                     0.00000000     0.00000000     0.66009600
 F                     0.00000000     0.00000000    -0.07334400

 ==============================================================================
                                internuclear distances
 ------------------------------------------------------------------------------
       center one      |      center two      | atomic units |  angstroms
 ------------------------------------------------------------------------------
    2 F                |   1 H                |     1.38600  |     0.73344
 ------------------------------------------------------------------------------
                         number of included internuclear distances:          1
 ==============================================================================



                      Basis "ao basis" -> "" (spherical)
                      -----
  H (Hydrogen)
  ------------
            Exponent  Coefficients 
       -------------- ---------------------------------------------------------
  1 S  1.30100000E+01  0.019685
  1 S  1.96200000E+00  0.137977
  1 S  4.44600000E-01  0.478148

  2 S  1.22000000E-01  1.000000

  3 P  7.27000000E-01  1.000000

  F (Fluorine)
  ------------
            Exponent  Coefficients 
       -------------- ---------------------------------------------------------
  1 S  1.47100000E+04  0.000721
  1 S  2.20700000E+03  0.005553
  1 S  5.02800000E+02  0.028267
  1 S  1.42600000E+02  0.106444
  1 S  4.64700000E+01  0.286814
  1 S  1.67000000E+01  0.448641
  1 S  6.35600000E+00  0.264761
  1 S  1.31600000E+00  0.015333

  2 S  1.47100000E+04 -0.000165
  2 S  2.20700000E+03 -0.001308
  2 S  5.02800000E+02 -0.006495
  2 S  1.42600000E+02 -0.026691
  2 S  4.64700000E+01 -0.073690
  2 S  1.67000000E+01 -0.170776
  2 S  6.35600000E+00 -0.112327
  2 S  1.31600000E+00  0.562814

  3 S  3.89700000E-01  1.000000

  4 P  2.26700000E+01  0.044878
  4 P  4.97700000E+00  0.235718
  4 P  1.34700000E+00  0.508521

  5 P  3.47100000E-01  1.000000

  6 D  1.64000000E+00  1.000000



 Summary of "ao basis" -> "" (spherical)
 ------------------------------------------------------------------------------
       Tag                 Description            Shells   Functions and Types
 ---------------- ------------------------------  ------  ---------------------
 H                          cc-pvdz                  3        5   2s1p
 F                          cc-pvdz                  6       14   3s2p1d



 Setting fock-build task_bf   :      -1
                    maxquartet:   10000
                    maxeri    :  129600
                    maxscr    :       0
                    intacc    : 0.0D+00
                    denscreen : T
                    dentol    : 1.0D-06

                                 NWChem SCF Module
                                 -----------------



  ao basis        = "ao basis"
  functions       =    19
  atoms           =     2
  closed shells   =     5
  open shells     =     0
  charge          =   0.00
  wavefunction    = RHF 
  input vectors   = atomic
  output vectors  = ./tce_hf_0.73344.movecs
  use symmetry    = F
  symmetry adapt  = F


 Summary of "ao basis" -> "ao basis" (spherical)
 ------------------------------------------------------------------------------
       Tag                 Description            Shells   Functions and Types
 ---------------- ------------------------------  ------  ---------------------
 H                          cc-pvdz                  3        5   2s1p
 F                          cc-pvdz                  6       14   3s2p1d




                         Geometry "geometry" -> "geometry"
                         ---------------------------------

 Output coordinates in angstroms (scale by  1.889725989 to convert to a.u.)

  No.       Tag          Charge          X              Y              Z
 ---- ---------------- ---------- -------------- -------------- --------------
    1 H                    1.0000     0.00000000     0.00000000     0.66009600
    2 F                    9.0000     0.00000000     0.00000000    -0.07334400

      Atomic Mass 
      ----------- 

      H                  1.007825
      F                 18.998400


 Effective nuclear repulsion energy (a.u.)       6.4935035463

            Nuclear Dipole moment (a.u.) 
            ----------------------------
        X                 Y               Z
 ---------------- ---------------- ----------------
     0.0000000000     0.0000000000    -0.0000000000



                                Z-matrix (autoz)
                                -------- 

 Units are Angstrom for bonds and degrees for angles

      Type          Name      I     J     K     L     M      Value
      ----------- --------  ----- ----- ----- ----- ----- ----------
    1 Stretch                  1     2                       0.73344


                      Basis "ao basis" -> "ao basis" (spherical)
                      -----
  H (Hydrogen)
  ------------
            Exponent  Coefficients 
       -------------- ---------------------------------------------------------
  1 S  1.30100000E+01  0.019685
  1 S  1.96200000E+00  0.137977
  1 S  4.44600000E-01  0.478148

  2 S  1.22000000E-01  1.000000

  3 P  7.27000000E-01  1.000000

  F (Fluorine)
  ------------
            Exponent  Coefficients 
       -------------- ---------------------------------------------------------
  1 S  1.47100000E+04  0.000721
  1 S  2.20700000E+03  0.005553
  1 S  5.02800000E+02  0.028267
  1 S  1.42600000E+02  0.106444
  1 S  4.64700000E+01  0.286814
  1 S  1.67000000E+01  0.448641
  1 S  6.35600000E+00  0.264761
  1 S  1.31600000E+00  0.015333

  2 S  1.47100000E+04 -0.000165
  2 S  2.20700000E+03 -0.001308
  2 S  5.02800000E+02 -0.006495
  2 S  1.42600000E+02 -0.026691
  2 S  4.64700000E+01 -0.073690
  2 S  1.67000000E+01 -0.170776
  2 S  6.35600000E+00 -0.112327
  2 S  1.31600000E+00  0.562814

  3 S  3.89700000E-01  1.000000

  4 P  2.26700000E+01  0.044878
  4 P  4.97700000E+00  0.235718
  4 P  1.34700000E+00  0.508521

  5 P  3.47100000E-01  1.000000

  6 D  1.64000000E+00  1.000000



    Basis function labels
    ---------------------
       No.  Atm El Type
       ---  --- -- ----
        1    1 H  s          
        2    1 H  s          
        3    1 H  px         
        4    1 H  py         
        5    1 H  pz         
        6    2 F  s          
        7    2 F  s          
        8    2 F  s          
        9    2 F  px         
       10    2 F  py         
       11    2 F  pz         
       12    2 F  px         
       13    2 F  py         
       14    2 F  pz         
       15    2 F  d -2       
       16    2 F  d -1       
       17    2 F  d  0       
       18    2 F  d  1       
       19    2 F  d  2       

 Schwarz integral screening summary 
 ---------------------------------- 

        No. of atom pairs =       3
       No. of shell pairs =      45

 Atomic screening 

   value      no.     value      no.     value      no.     value      no.   
  -------- ------    -------- ------    -------- ------    -------- ------   
  0.00D+00      0    1.00D-13      0    1.00D-12      0    1.00D-11      0
  1.00D-10      0    1.00D-09      0    1.00D-08      0    1.00D-07      0
  1.00D-06      0    1.00D-05      0    1.00D-04      0    1.00D-03      0
  1.00D-02      0    1.00D-01      0    1.00D+00      3    1.00D+01      0


 Shell screening 

   value      no.     value      no.     value      no.     value      no.   
  -------- ------    -------- ------    -------- ------    -------- ------   
  0.00D+00      0    1.00D-13      0    1.00D-12      0    1.00D-11      0
  1.00D-10      0    1.00D-09      0    1.00D-08      0    1.00D-07      0
  1.00D-06      0    1.00D-05      0    1.00D-04      0    1.00D-03      0
  1.00D-02      0    1.00D-01      9    1.00D+00     36    1.00D+01      0



 Forming initial guess at       0.1s


      Superposition of Atomic Density Guess
      -------------------------------------

 Sum of atomic energies:         -99.88314519

      Non-variational initial energy
      ------------------------------

 Total energy =    -100.039294
 1-e energy   =    -151.553479
 2-e energy   =      45.020682
 HOMO         =      -0.686813
 LUMO         =       0.158983


 Setting fock-build task_bf   :      -1
                    maxquartet:   10000
                    maxeri    :  129600
                    maxscr    :       0
                    intacc    : 0.0D+00
                    denscreen : T
                    dentol    : 1.0D-06


 Wrote molecular orbitals to ./tce_hf_0.73344.movecs


 Starting SCF solution at       0.1s

 ready to solve ...                    0


 ----------------------------------------------
         Quadratically convergent ROHF

 Convergence threshold     :          1.000E-10
 Maximum no. of iterations :           30
 Final Fock-matrix accuracy:          1.000E-10
 ----------------------------------------------

   0: nuse=   1(   1.0) avail=   434885Mb (out of   434885Mb) on .

 #quartets = 1.035D+03 #integrals = 4.841D+03 #direct =  0.0% #cached =100.0%


 Integral file          = ./tce_hf_0.73344.aoints.0
 Record size in doubles =  65536        No. of integs per rec  =  43688
 Max. records in memory =      2        Max. records in file   = 826280
 No. of bits per label  =      8        No. of bits per value  =     64


 Wrote rohf: cfock to ./tce_hf_0.73344.cfock


              iter       energy          gnorm     gmax       time
             ----- ------------------- --------- --------- --------
                 1      -99.9437927741  7.04D-01  3.48D-01      0.1

            ----- linear solve (tol: 1.0E-02 prod-acc: 8.4E-09) -----

               iter nbas    rnorm     rnorm-scal   ratio     time
               ---- ---- ----------- ----------- --------- -------
 rohf_wrap: in g_x =    1              0.70435030
 rohf_wrap: out g_x =    1              0.07445159
                  1    1  1.5267E-15  2.1676E-15    0.0000     0.1

                              ----- Line search ------

        step       energy         lsg     num-lsg   num-lsh   lsrat    time
      ------- ---------------- --------- --------- --------- ------- --------
       0.0000     -99.94379277 -4.97D-02  0.00D+00  0.00D+00 0.0D+00      0.1

 Wrote rohf: cfock to ./tce_hf_0.73344.cfock

       1.0000     -99.96033497  1.70D-02  1.68D-02  6.67D-02 3.4D-01      0.1

 Wrote rohf: cfock to ./tce_hf_0.73344.cfock

       0.7452     -99.96247503 -1.95D-04 -2.05D-04  6.75D-02 3.9D-03      0.1

              iter       energy          gnorm     gmax       time
             ----- ------------------- --------- --------- --------
                 2      -99.9624750328  1.30D-01  5.94D-02      0.1

            ----- linear solve (tol: 1.0E-01 prod-acc: 1.6E-08) -----

               iter nbas    rnorm     rnorm-scal   ratio     time
               ---- ---- ----------- ----------- --------- -------
 rohf_wrap: in g_x =    1              0.12998173
 rohf_wrap: out g_x =    1              0.01458219
                  1    1  3.8465E-02  2.9592E-01    0.0000     0.2
 rohf_wrap: in g_x =    1              0.03846460
 rohf_wrap: out g_x =    1              0.00402495
                  2    2  7.2568E-03  5.5829E-02    0.1887     0.2

                              ----- Line search ------

        step       energy         lsg     num-lsg   num-lsh   lsrat    time
      ------- ---------------- --------- --------- --------- ------- --------
       0.0000     -99.96247503 -1.87D-03  0.00D+00  0.00D+00 0.0D+00      0.2

 Wrote rohf: cfock to ./tce_hf_0.73344.cfock

       1.0000     -99.96341831 -1.66D-05 -1.54D-05  1.86D-03 8.9D-03      0.2

              iter       energy          gnorm     gmax       time
             ----- ------------------- --------- --------- --------
                 3      -99.9634183058  7.31D-03  3.90D-03      0.2

            ----- linear solve (tol: 7.3E-03 prod-acc: 6.4E-11) -----

               iter nbas    rnorm     rnorm-scal   ratio     time
               ---- ---- ----------- ----------- --------- -------
 rohf_wrap: in g_x =    1              0.00731268
 rohf_wrap: out g_x =    1              0.00069558
                  1    1  1.7683E-03  2.4181E-01    0.0000     0.2
 rohf_wrap: in g_x =    1              0.00176829
 rohf_wrap: out g_x =    1              0.00019492
                  2    2  4.6654E-04  6.3799E-02    0.2638     0.2
 rohf_wrap: in g_x =    1              0.00046654
 rohf_wrap: out g_x =    1              0.00005010
                  3    3  8.0436E-05  1.0999E-02    0.1724     0.2
 rohf_wrap: in g_x =    1              0.00008044
 rohf_wrap: out g_x =    1              0.00000884
                  4    4  1.2192E-05  1.6672E-03    0.1516     0.2

                              ----- Line search ------

        step       energy         lsg     num-lsg   num-lsh   lsrat    time
      ------- ---------------- --------- --------- --------- ------- --------
       0.0000     -99.96341831 -5.44D-06  0.00D+00  0.00D+00 0.0D+00      0.2

 Wrote rohf: cfock to ./tce_hf_0.73344.cfock

       1.0000     -99.96342102 -6.76D-10 -5.43D-10  5.44D-06 1.2D-04      0.2

              iter       energy          gnorm     gmax       time
             ----- ------------------- --------- --------- --------
                 4      -99.9634210240  1.23D-05  6.00D-06      0.2

            ----- linear solve (tol: 1.2E-05 prod-acc: 1.8E-16) -----

               iter nbas    rnorm     rnorm-scal   ratio     time
               ---- ---- ----------- ----------- --------- -------
 rohf_wrap: in g_x =    1              0.00001227
 rohf_wrap: out g_x =    1              0.00000176
                  1    1  2.4435E-06  1.9920E-01    0.0000     0.2
 rohf_wrap: in g_x =    1              0.00000244
 rohf_wrap: out g_x =    1              0.00000034
                  2    2  7.6583E-07  6.2432E-02    0.3134     0.2
 rohf_wrap: in g_x =    1              0.00000077
 rohf_wrap: out g_x =    1              0.00000008
                  3    3  1.3789E-07  1.1241E-02    0.1801     0.2
 rohf_wrap: in g_x =    1              0.00000014
 rohf_wrap: out g_x =    1              0.00000001
                  4    4  2.5629E-08  2.0893E-03    0.1859     0.2
 rohf_wrap: in g_x =    1              0.00000003
 rohf_wrap: out g_x =    1              0.00000000
                  5    5  1.4914E-09  1.2158E-04    0.0582     0.2
 rohf_wrap: in g_x =    1              0.00000000
 rohf_wrap: out g_x =    1              0.00000000
                  6    6  1.4306E-10  1.1663E-05    0.0959     0.2

                              ----- Line search ------

        step       energy         lsg     num-lsg   num-lsh   lsrat    time
      ------- ---------------- --------- --------- --------- ------- --------
       0.0000     -99.96342102 -2.63D-11  0.00D+00  0.00D+00 0.0D+00      0.2

 Wrote rohf: cfock to ./tce_hf_0.73344.cfock

       1.0000     -99.96342102  6.25D-17 -2.05D-13  2.63D-11 2.4D-06      0.2

              iter       energy          gnorm     gmax       time
             ----- ------------------- --------- --------- --------
                 5      -99.9634210240  1.44D-10  5.97D-11      0.2

            ----- linear solve (tol: 6.9E-02 prod-acc: 1.2E-17) -----

               iter nbas    rnorm     rnorm-scal   ratio     time
               ---- ---- ----------- ----------- --------- -------
 rohf_wrap: in g_x =    1              0.00000000
 rohf_wrap: out g_x =    1              0.00000000
                  1    1  3.7937E-11  2.6309E-01    0.0000     0.2
 rohf_wrap: in g_x =    1              0.00000000
 rohf_wrap: out g_x =    1              0.00000000
                  2    2  7.0402E-12  4.8822E-02    0.1856     0.2

                              ----- Line search ------

        step       energy         lsg     num-lsg   num-lsh   lsrat    time
      ------- ---------------- --------- --------- --------- ------- --------
       0.0000     -99.96342102 -3.03D-21  0.00D+00  0.00D+00 0.0D+00      0.2

 Wrote rohf: cfock to ./tce_hf_0.73344.cfock

       1.0000     -99.96342102 -6.95D-23  1.42D-13  2.96D-21 2.3D-02      0.2

              iter       energy          gnorm     gmax       time
             ----- ------------------- --------- --------- --------
                 6      -99.9634210240  7.05D-12  4.05D-12      0.2

 Wrote molecular orbitals to ./tce_hf_0.73344.movecs



       Final RHF  results 
       ------------------ 

         Total SCF energy =    -99.963421023996
      One-electron energy =   -152.784214778241
      Two-electron energy =     46.327290207946
 Nuclear repulsion energy =      6.493503546299

        Time for solution =      0.1s


             Final eigenvalues
             -----------------

              1      
    1  -26.2723
    2   -1.6696
    3   -0.8226
    4   -0.6502
    5   -0.6502
    6    0.2148
    7    1.0406
    8    1.3667
    9    1.4273
   10    1.4273
   11    1.6436
   12    1.6436
   13    2.1244
   14    3.1591
   15    3.9836
   16    3.9836
   17    4.4904
   18    4.4904
   19    5.3201

                       ROHF Final Molecular Orbital Analysis
                       -------------------------------------

 Vector    1  Occ=2.000000D+00  E=-2.627228D+01
              MO Center=  1.9D-21, -7.4D-21, -7.3D-02, r^2= 1.2D-02
   Bfn.  Coefficient  Atom+Function         Bfn.  Coefficient  Atom+Function  
  ----- ------------  ---------------      ----- ------------  ---------------
     6      1.000908  2 F  s          

 Vector    2  Occ=2.000000D+00  E=-1.669622D+00
              MO Center= -6.1D-18,  3.6D-19,  9.7D-02, r^2= 3.4D-01
   Bfn.  Coefficient  Atom+Function         Bfn.  Coefficient  Atom+Function  
  ----- ------------  ---------------      ----- ------------  ---------------
     7      0.465692  2 F  s                  8      0.365933  2 F  s          
     1      0.296706  1 H  s          

 Vector    3  Occ=2.000000D+00  E=-8.225883D-01
              MO Center=  4.1D-19, -1.1D-18, -8.8D-02, r^2= 4.6D-01
   Bfn.  Coefficient  Atom+Function         Bfn.  Coefficient  Atom+Function  
  ----- ------------  ---------------      ----- ------------  ---------------
    11      0.573123  2 F  pz                 1      0.430270  1 H  s          
     8     -0.407116  2 F  s                 14      0.250873  2 F  pz         

 Vector    4  Occ=2.000000D+00  E=-6.501626D-01
              MO Center=  1.4D-17, -1.1D-18, -5.1D-02, r^2= 4.4D-01
   Bfn.  Coefficient  Atom+Function         Bfn.  Coefficient  Atom+Function  
  ----- ------------  ---------------      ----- ------------  ---------------
     9      0.663763  2 F  px                12      0.463896  2 F  px         

 Vector    5  Occ=2.000000D+00  E=-6.501626D-01
              MO Center=  4.0D-18, -1.1D-18, -5.1D-02, r^2= 4.4D-01
   Bfn.  Coefficient  Atom+Function         Bfn.  Coefficient  Atom+Function  
  ----- ------------  ---------------      ----- ------------  ---------------
    10      0.663763  2 F  py                13      0.463896  2 F  py         

 Vector    6  Occ=0.000000D+00  E= 2.148384D-01
              MO Center= -4.0D-18,  4.7D-18,  9.0D-01, r^2= 2.3D+00
   Bfn.  Coefficient  Atom+Function         Bfn.  Coefficient  Atom+Function  
  ----- ------------  ---------------      ----- ------------  ---------------
     2      1.391665  1 H  s                  8     -0.788548  2 F  s          
    14     -0.244975  2 F  pz         

 Vector    7  Occ=0.000000D+00  E= 1.040612D+00
              MO Center= -1.8D-16, -3.4D-17,  7.0D-01, r^2= 8.0D-01
   Bfn.  Coefficient  Atom+Function         Bfn.  Coefficient  Atom+Function  
  ----- ------------  ---------------      ----- ------------  ---------------
     1      1.066534  1 H  s                  2     -0.734986  1 H  s          
     5      0.591019  1 H  pz                11     -0.399490  2 F  pz         
     8      0.151622  2 F  s          

 Vector    8  Occ=0.000000D+00  E= 1.366738D+00
              MO Center=  1.5D-16, -5.7D-16, -4.6D-01, r^2= 9.3D-01
   Bfn.  Coefficient  Atom+Function         Bfn.  Coefficient  Atom+Function  
  ----- ------------  ---------------      ----- ------------  ---------------
    14      1.753842  2 F  pz                 1     -1.466651  1 H  s          
     8      0.981416  2 F  s                 11     -0.571742  2 F  pz         
     5      0.307492  1 H  pz                 7      0.177361  2 F  s          

 Vector    9  Occ=0.000000D+00  E= 1.427324D+00
              MO Center= -1.9D-16,  1.4D-16, -1.4D-01, r^2= 9.2D-01
   Bfn.  Coefficient  Atom+Function         Bfn.  Coefficient  Atom+Function  
  ----- ------------  ---------------      ----- ------------  ---------------
    12      0.916573  2 F  px                 9     -0.734380  2 F  px         
    13     -0.660401  2 F  py                10      0.529129  2 F  py         
     3     -0.161596  1 H  px         

 Vector   10  Occ=0.000000D+00  E= 1.427324D+00
              MO Center=  2.7D-16,  3.6D-16, -1.4D-01, r^2= 9.2D-01
   Bfn.  Coefficient  Atom+Function         Bfn.  Coefficient  Atom+Function  
  ----- ------------  ---------------      ----- ------------  ---------------
    13      0.916573  2 F  py                10     -0.734380  2 F  py         
    12      0.660401  2 F  px                 9     -0.529129  2 F  px         
     4     -0.161596  1 H  py         

 Vector   11  Occ=0.000000D+00  E= 1.643607D+00
              MO Center= -1.2D-16,  1.2D-16,  5.9D-01, r^2= 6.1D-01
   Bfn.  Coefficient  Atom+Function         Bfn.  Coefficient  Atom+Function  
  ----- ------------  ---------------      ----- ------------  ---------------
     3      0.915311  1 H  px                 4     -0.678901  1 H  py         
    12     -0.344524  2 F  px                13      0.255539  2 F  py         
     9     -0.196698  2 F  px         

 Vector   12  Occ=0.000000D+00  E= 1.643607D+00
              MO Center= -1.5D-16, -2.1D-16,  5.9D-01, r^2= 6.1D-01
   Bfn.  Coefficient  Atom+Function         Bfn.  Coefficient  Atom+Function  
  ----- ------------  ---------------      ----- ------------  ---------------
     4      0.915311  1 H  py                 3      0.678901  1 H  px         
    13     -0.344524  2 F  py                12     -0.255539  2 F  px         
    10     -0.196698  2 F  py         

 Vector   13  Occ=0.000000D+00  E= 2.124382D+00
              MO Center=  4.6D-16,  4.2D-16,  8.6D-02, r^2= 1.0D+00
   Bfn.  Coefficient  Atom+Function         Bfn.  Coefficient  Atom+Function  
  ----- ------------  ---------------      ----- ------------  ---------------
     8      2.787000  2 F  s                  7     -1.565672  2 F  s          
     1     -1.072794  1 H  s                 14      0.723347  2 F  pz         
     6     -0.671832  2 F  s                  2     -0.643040  1 H  s          
     5      0.401762  1 H  pz                11      0.201601  2 F  pz         

 Vector   14  Occ=0.000000D+00  E= 3.159135D+00
              MO Center=  6.7D-17,  2.3D-17,  5.4D-01, r^2= 4.9D-01
   Bfn.  Coefficient  Atom+Function         Bfn.  Coefficient  Atom+Function  
  ----- ------------  ---------------      ----- ------------  ---------------
     5     -1.605638  1 H  pz                 1      1.499941  1 H  s          
     8     -1.103429  2 F  s                 11     -0.895206  2 F  pz         
     7     -0.854029  2 F  s                  6     -0.384735  2 F  s          
    14     -0.376364  2 F  pz                17      0.210022  2 F  d  0       
     2      0.173712  1 H  s          

 Vector   15  Occ=0.000000D+00  E= 3.983553D+00
              MO Center= -3.6D-17,  2.4D-18, -7.3D-02, r^2= 3.0D-01
   Bfn.  Coefficient  Atom+Function         Bfn.  Coefficient  Atom+Function  
  ----- ------------  ---------------      ----- ------------  ---------------
    19      0.996932  2 F  d  2       

 Vector   16  Occ=0.000000D+00  E= 3.983553D+00
              MO Center= -5.4D-18, -2.2D-17, -7.3D-02, r^2= 3.0D-01
   Bfn.  Coefficient  Atom+Function         Bfn.  Coefficient  Atom+Function  
  ----- ------------  ---------------      ----- ------------  ---------------
    15      0.996932  2 F  d -2       

 Vector   17  Occ=0.000000D+00  E= 4.490436D+00
              MO Center= -3.0D-18,  3.6D-18, -6.9D-03, r^2= 4.2D-01
   Bfn.  Coefficient  Atom+Function         Bfn.  Coefficient  Atom+Function  
  ----- ------------  ---------------      ----- ------------  ---------------
    18      1.081700  2 F  d  1               3      0.583258  1 H  px         
    12     -0.293579  2 F  px         

 Vector   18  Occ=0.000000D+00  E= 4.490436D+00
              MO Center=  8.5D-19,  3.4D-18, -6.9D-03, r^2= 4.2D-01
   Bfn.  Coefficient  Atom+Function         Bfn.  Coefficient  Atom+Function  
  ----- ------------  ---------------      ----- ------------  ---------------
    16      1.081700  2 F  d -1               4     -0.583258  1 H  py         
    13      0.293579  2 F  py         

 Vector   19  Occ=0.000000D+00  E= 5.320129D+00
              MO Center=  4.8D-17,  2.1D-17, -6.5D-02, r^2= 5.2D-01
   Bfn.  Coefficient  Atom+Function         Bfn.  Coefficient  Atom+Function  
  ----- ------------  ---------------      ----- ------------  ---------------
     1      2.643750  1 H  s                  8     -2.261052  2 F  s          
    14     -1.337199  2 F  pz                17     -1.211842  2 F  d  0       
     5     -1.183331  1 H  pz                11     -0.521969  2 F  pz         


 center of mass
 --------------
 x =   0.00000000 y =   0.00000000 z =  -0.06877949

 moments of inertia (a.u.)
 ------------------
           1.838500957768           0.000000000000           0.000000000000
           0.000000000000           1.838500957768           0.000000000000
           0.000000000000           0.000000000000           0.000000000000

  Mulliken analysis of the total density
  --------------------------------------

   Bfn.    Population  Atom+Function
   ---------------------------------
     1      0.811729    1 H  s          
     2     -0.005226    1 H  s          
     3      0.043226    1 H  px         
     4      0.043226    1 H  py         
     5      0.060796    1 H  pz         
     6      2.001782    2 F  s          
     7      0.883866    2 F  s          
     8      0.844191    2 F  s          
     9      1.201306    2 F  px         
    10      1.201306    2 F  py         
    11      1.012052    2 F  pz         
    12      0.754545    2 F  px         
    13      0.754545    2 F  py         
    14      0.384157    2 F  pz         
    15      0.000000    2 F  d -2       
    16      0.000923    2 F  d -1       
    17      0.006652    2 F  d  0       
    18      0.000923    2 F  d  1       
    19      0.000000    2 F  d  2       

    Atom       Charge   Shell Charges
 -----------   ------   -------------------------------------------------------
    1 H    1     0.95   0.81 -0.01  0.15
    2 F    9     9.05   2.00  0.88  0.84  3.41  1.89  0.01

       Multipole analysis of the density wrt the origin
       ------------------------------------------------

     L   x y z        total         open         nuclear
     -   - - -        -----         ----         -------
     0   0 0 0     -0.000000      0.000000     10.000000

     1   1 0 0     -0.000000      0.000000      0.000000
     1   0 1 0      0.000000      0.000000      0.000000
     1   0 0 1      0.625172      0.000000     -0.000000

     2   2 0 0     -3.873875      0.000000      0.000000
     2   1 1 0     -0.000000      0.000000      0.000000
     2   1 0 1     -0.000000      0.000000      0.000000
     2   0 2 0     -3.873875      0.000000      0.000000
     2   0 1 1      0.000000      0.000000      0.000000
     2   0 0 2     -2.844023      0.000000      1.728898


 Wrote molecular orbitals to ./tce_hf_0.73344.movecs


 Parallel integral file used       1 records with       0 large values


 Read molecular orbitals from ./tce_hf_0.73344.movecs


 Schwarz integral screening summary 
 ---------------------------------- 

        No. of atom pairs =       3
       No. of shell pairs =      45

 Atomic screening 

   value      no.     value      no.     value      no.     value      no.   
  -------- ------    -------- ------    -------- ------    -------- ------   
  0.00D+00      0    1.00D-13      0    1.00D-12      0    1.00D-11      0
  1.00D-10      0    1.00D-09      0    1.00D-08      0    1.00D-07      0
  1.00D-06      0    1.00D-05      0    1.00D-04      0    1.00D-03      0
  1.00D-02      0    1.00D-01      0    1.00D+00      3    1.00D+01      0


 Shell screening 

   value      no.     value      no.     value      no.     value      no.   
  -------- ------    -------- ------    -------- ------    -------- ------   
  0.00D+00      0    1.00D-13      0    1.00D-12      0    1.00D-11      0
  1.00D-10      0    1.00D-09      0    1.00D-08      0    1.00D-07      0
  1.00D-06      0    1.00D-05      0    1.00D-04      0    1.00D-03      0
  1.00D-02      0    1.00D-01      9    1.00D+00     36    1.00D+01      0


                   NWChem Extensible Many-Electron Theory Module
                   ---------------------------------------------

              ======================================================
                   This portion of the program was automatically
                  generated by a Tensor Contraction Engine (TCE).
                  The development of this portion of the program
                 and TCE was supported by US Department of Energy,
                Office of Science, Office of Basic Energy Science.
                      TCE is a product of Battelle and PNNL.
              Please cite: S.Hirata, J.Phys.Chem.A 107, 9887 (2003).
              ======================================================

            General Information
            -------------------
      Number of processors :     1
         Wavefunction type : Restricted Hartree-Fock
          No. of electrons :    10
           Alpha electrons :     5
            Beta electrons :     5
           No. of orbitals :    38
            Alpha orbitals :    19
             Beta orbitals :    19
        Alpha frozen cores :     0
         Beta frozen cores :     0
     Alpha frozen virtuals :     0
      Beta frozen virtuals :     0
         Spin multiplicity : singlet 
    Number of AO functions :    19
       Number of AO shells :     9
        Use of symmetry is : off
      Symmetry adaption is : off
         Schwarz screening : 0.10D-09

          Correlation Information
          -----------------------
          Calculation type : Coupled-cluster singles & doubles                           
   Perturbative correction : none                                                        
            Max iterations :      100
        Residual threshold : 0.10D-07
     T(0) DIIS level shift : 0.00D+00
     L(0) DIIS level shift : 0.00D+00
     T(1) DIIS level shift : 0.00D+00
     L(1) DIIS level shift : 0.00D+00
     T(R) DIIS level shift : 0.00D+00
     T(I) DIIS level shift : 0.00D+00
   CC-T/L Amplitude update :  5-th order DIIS
                I/O scheme : Global Array Library
        L-threshold :  0.10D-07
        EOM-threshold :  0.10D-07
 no EOMCCSD initial starts read in
 TCE RESTART OPTIONS
 READ_INT:   F
 WRITE_INT:  F
 READ_TA:    F
 WRITE_TA:   F
 READ_XA:    F
 WRITE_XA:   F
 READ_IN3:   F
 WRITE_IN3:  F
 SLICE:      F
 D4D5:       F
 quantumc:   F
 qrotation:  F
 qducc:      T
 nacto:                         0
 nrotv:                         0
 nrot:                          0

            Memory Information
            ------------------
          Available GA space size is     402652823 doubles
          Available MA space size is     402651564 doubles

 Maximum block size        32 doubles

 tile_dim =     14

 Block   Spin    Irrep     Size     Offset   Alpha
 -------------------------------------------------
   1    alpha     a      5 doubles       0       1
   2    beta      a      5 doubles       5       1
   3    alpha     a     14 doubles      10       3
   4    beta      a     14 doubles      24       3

 Global array virtual files algorithm will be used

 Parallel file system coherency ......... OK

 Setting fock-build task_bf   :      -1
                    maxquartet:   10000
                    maxeri    :  129600
                    maxscr    :       0
                    intacc    : 0.0D+00
                    denscreen : T
                    dentol    : 1.0D-06

   0: nuse=   1(   1.0) avail=   434885Mb (out of   434885Mb) on .

 #quartets = 1.035D+03 #integrals = 4.841D+03 #direct =  0.0% #cached =100.0%


 Integral file          = ./tce_hf_0.73344.aoints.0
 Record size in doubles =  65536        No. of integs per rec  =  43688
 Max. records in memory =      2        Max. records in file   = 826280
 No. of bits per label  =      8        No. of bits per value  =     64


 Fock matrix recomputed
 1-e file size   =              361
 1-e file name   = ./tce_hf_0.73344.f1
 Cpu & wall time / sec            0.1            0.1
 4-electron integrals stored in orbital form

 v2    file size   =            64311
 4-index algorithm nr.  13 is used
 imaxsize =       30
 imaxsize ichop =        0
 Cpu & wall time / sec            0.1            0.1
 T1-number-of-tasks                    1

 t1 file size   =               70
 t1 file name   = ./tce_hf_0.73344.t1
 t1 file handle =       -998
 T2-number-of-boxes                    2

 t2 file size   =             9800
 t2 file name   = ./tce_hf_0.73344.t2
 t2 file handle =       -996

 CCSD iterations
 -----------------------------------------------------------------
 Iter          Residuum       Correlation     Cpu    Wall    V2*C2
 -----------------------------------------------------------------
    1   0.0953415097668  -0.1956819661015     0.0     0.0     0.0
    2   0.0227541053583  -0.1989899626238     0.0     0.0     0.0
    3   0.0071160523898  -0.2005779852420     0.0     0.0     0.0
    4   0.0024585981072  -0.2009176688234     0.0     0.0     0.0
    5   0.0008803764266  -0.2010288906731     0.0     0.0     0.0
 MICROCYCLE DIIS UPDATE:                    5                    5
    6   0.0000747516331  -0.2010783345736     0.0     0.0     0.0
    7   0.0000169047732  -0.2010832404806     0.0     0.0     0.0
    8   0.0000063931750  -0.2010832459272     0.0     0.0     0.0
    9   0.0000023157371  -0.2010832504678     0.0     0.0     0.0
   10   0.0000009937361  -0.2010832623056     0.0     0.0     0.0
 MICROCYCLE DIIS UPDATE:                   10                    5
   11   0.0000001751404  -0.2010832778004     0.0     0.0     0.0
   12   0.0000000600573  -0.2010832713866     0.0     0.0     0.0
   13   0.0000000257282  -0.2010832718684     0.0     0.0     0.0
   14   0.0000000119278  -0.2010832717423     0.0     0.0     0.0
   15   0.0000000055732  -0.2010832716882     0.0     0.0     0.0
 -----------------------------------------------------------------
 Iterations converged
 CCSD correlation energy / hartree =        -0.201083271688216
 CCSD total energy / hartree       =      -100.164504295684281

 Singles contributions

 Doubles contributions
 Ground state specification:
 exp(T)|Ref>~(1+T)|Ref>
 ------- a(p)+/a(q) strings ----------

 singles norm

 doubles norm

 Reference string
   1.0000000000000000      :(1a)+ (2a)+ (3a)+ (4a)+ (5a)+ (1b)+ (2b)+ (3b)+ (4b)+ (5b)+ |0>

 Singles strings

 Doubles strings
 -------------------------------------
 enrep_tce =    6.4935035462986521     
  EHF(total)         =       -99.96342102
  Shift (HFtot-HFA)  =         0.00000000
 ALL OCCUPIED ORBITALS ARE ACTIVE IN DUCC --> NO SHIFT
 Number of active orbitals                   10
 Number of active alpha electrons                    5
 Number of active beta electrons                    5
  nos                    10
  nvs                    28
 noas                     5
 nobs                     5
 nvas                    14
 nvbs                    14
 nactv                     5
 From DUCC CCSD corr. ene. -0.20108327168822737     
 From DUCC CCSD corr. ene.-e-part  0.13436352306536128     
 begin_one_electron_integrals
    1    1       -41.1374795093
    1    2         0.7279405486
    1    3        -0.2256913966
    1    6        -0.1715764219
    1    7        -0.1356774160
    1    8         0.1669500919
    2    1         0.7279405486
    2    2        -9.5524215140
    2    3         0.1413713818
    2    6         0.9600319859
    2    7         0.7717151127
    2    8        -0.1554582080
    3    1        -0.2256913966
    3    2         0.1413713818
    3    3        -8.5295022056
    3    6         0.4411907601
    3    7         1.2219780290
    3    8         1.7327303686
    4    4        -8.5862708353
    4    9         2.0165830362
    4   10         1.3738827986
    5    5        -8.5862708353
    5    9        -1.3738827986
    5   10         2.0165830362
    6    1        -0.1715764219
    6    2         0.9600319859
    6    3         0.4411907601
    6    6        -3.3773627716
    6    7        -0.9633860367
    6    8        -0.2682505812
    7    1        -0.1356774160
    7    2         0.7717151127
    7    3         1.2219780290
    7    6        -0.9633860367
    7    7        -4.9252052192
    7    8        -0.4721638788
    8    1         0.1669500919
    8    2        -0.1554582080
    8    3         1.7327303686
    8    6        -0.2682505812
    8    7        -0.4721638788
    8    8        -4.7836487475
    9    4         2.0165830362
    9    5        -1.3738827986
    9    9        -5.8597465813
   10    4         1.3738827986
   10    5         2.0165830362
   10   10        -5.8597465813
 end_one_electron_integrals
 begin_two_electron_integrals
    1    1    1    1        5.3547348923
    2    1    1    1       -0.5119910303
    2    2    1    1        1.2425528948
    2    1    2    1        0.0791732475
    2    2    2    1       -0.0175852549
    2    2    2    2        0.9091716704
    3    1    1    1        0.1561451038
    3    2    1    1       -0.0675379274
    3    3    1    1        1.1671111761
    3    1    2    1       -0.0181493443
    3    1    2    2        0.0220293081
    3    2    2    1        0.0108323049
    3    2    2    2        0.0586766373
    3    3    2    1       -0.0165793941
    3    3    2    2        0.8207245748
    3    1    3    1        0.0360263419
    3    2    3    1        0.0303343230
    3    2    3    2        0.1622892267
    3    3    3    1       -0.0085652145
    3    3    3    2       -0.0459080834
    3    3    3    3        0.8633144914
    4    4    1    1        1.2214123311
    4    4    2    1       -0.0150638035
    4    4    2    2        0.8449665912
    4    4    3    1        0.0057439875
    4    4    3    2       -0.0271629632
    4    4    3    3        0.7845642467
    4    1    4    1        0.0375240724
    4    2    4    1        0.0376870032
    4    2    4    2        0.1516288466
    4    3    4    1       -0.0114345798
    4    3    4    2       -0.0350003720
    4    3    4    3        0.0470698635
    4    4    4    4        0.8856880556
    5    5    1    1        1.2214123311
    5    5    2    1       -0.0150638035
    5    5    2    2        0.8449665912
    5    5    3    1        0.0057439875
    5    5    3    2       -0.0271629632
    5    5    3    3        0.7845642467
    5    5    4    4        0.8025091233
    5    1    5    1        0.0375240724
    5    2    5    1        0.0376870032
    5    2    5    2        0.1516288466
    5    3    5    1       -0.0114345798
    5    3    5    2       -0.0350003720
    5    3    5    3        0.0470698635
    5    4    5    4        0.0398210197
    5    5    5    5        0.8856880556
    6    1    1    1        0.1315635300
    6    2    1    1       -0.1926555248
    6    3    1    1       -0.0810915553
    6    6    1    1        0.3922702936
    6    1    2    1       -0.0224126699
    6    1    2    2        0.0015035845
    6    2    2    1        0.0043023038
    6    2    2    2       -0.1064954963
    6    3    2    1        0.0000378891
    6    3    2    2       -0.0472576351
    6    6    2    1       -0.0009321147
    6    6    2    2        0.3774871604
    6    1    3    1       -0.0008222053
    6    1    3    2       -0.0085409617
    6    1    3    3        0.0060593759
    6    2    3    1       -0.0089352361
    6    2    3    2       -0.0163144426
    6    2    3    3       -0.0774677329
    6    3    3    1       -0.0042011342
    6    3    3    2       -0.0007585144
    6    3    3    3       -0.0410284325
    6    6    3    1        0.0058912276
    6    6    3    2        0.0407835242
    6    6    3    3        0.3527323788
    6    1    4    4        0.0027971769
    6    2    4    4       -0.0912393126
    6    3    4    4       -0.0402544341
    6    4    4    1       -0.0069107035
    6    4    4    2       -0.0157075098
    6    4    4    3       -0.0006103937
    6    6    4    4        0.3535388192
    6    1    5    5        0.0027971769
    6    2    5    5       -0.0912393126
    6    3    5    5       -0.0402544341
    6    5    5    1       -0.0069107035
    6    5    5    2       -0.0157075098
    6    5    5    3       -0.0006103937
    6    6    5    5        0.3535388192
    6    1    6    1        0.0073719168
    6    2    6    1        0.0002633088
    6    2    6    2        0.0286486053
    6    3    6    1        0.0008483327
    6    3    6    2        0.0148156264
    6    3    6    3        0.0146191829
    6    4    6    4        0.0106168500
    6    5    6    5        0.0106168500
    6    6    6    1       -0.0006711414
    6    6    6    2       -0.0066970472
    6    6    6    3        0.0104958853
    6    6    6    6        0.3423601600
    7    1    1    1        0.1083518138
    7    2    1    1       -0.1742511686
    7    3    1    1       -0.2651142000
    7    6    1    1        0.1499131587
    7    7    1    1        0.7222403985
    7    1    2    1       -0.0216007578
    7    1    2    2       -0.0060147845
    7    2    2    1        0.0028209884
    7    2    2    2       -0.0781914732
    7    3    2    1        0.0070983416
    7    3    2    2       -0.0854126623
    7    6    2    1       -0.0018471731
    7    6    2    2        0.1086761612
    7    7    2    1       -0.0039143452
    7    7    2    2        0.6480826766
    7    1    3    1       -0.0150205030
    7    1    3    2       -0.0214826363
    7    1    3    3        0.0122270228
    7    2    3    1       -0.0158330912
    7    2    3    2       -0.0124791577
    7    2    3    3       -0.0202572061
    7    3    3    1        0.0051885679
    7    3    3    2        0.0747843140
    7    3    3    3       -0.1162757405
    7    6    3    1        0.0064644404
    7    6    3    2        0.0307633936
    7    6    3    3        0.0922721949
    7    7    3    1        0.0124404342
    7    7    3    2        0.1124504242
    7    7    3    3        0.6122746647
    7    1    4    4        0.0012038619
    7    2    4    4       -0.0805670390
    7    3    4    4       -0.1096379066
    7    4    4    1       -0.0091312009
    7    4    4    2       -0.0371980456
    7    4    4    3       -0.0048270377
    7    6    4    4        0.0858112262
    7    7    4    4        0.5605956651
    7    1    5    5        0.0012038619
    7    2    5    5       -0.0805670390
    7    3    5    5       -0.1096379066
    7    5    5    1       -0.0091312009
    7    5    5    2       -0.0371980456
    7    5    5    3       -0.0048270377
    7    6    5    5        0.0858112262
    7    7    5    5        0.5605956651
    7    1    6    1        0.0096269414
    7    1    6    2        0.0037129518
    7    1    6    3        0.0024436683
    7    1    6    6       -0.0028639755
    7    2    6    1        0.0020863304
    7    2    6    2        0.0314471556
    7    2    6    3        0.0193676143
    7    2    6    6        0.0035956910
    7    3    6    1       -0.0026446547
    7    3    6    2        0.0279000774
    7    3    6    3        0.0259948911
    7    3    6    6        0.0215214430
    7    4    6    4        0.0080800654
    7    5    6    5        0.0080800654
    7    6    6    1       -0.0005392153
    7    6    6    2       -0.0132981512
    7    6    6    3       -0.0001428339
    7    6    6    6        0.0379806180
    7    7    6    1       -0.0008801482
    7    7    6    2       -0.0352960723
    7    7    6    3        0.0076571087
    7    7    6    6        0.4061265971
    7    1    7    1        0.0178734029
    7    2    7    1        0.0089186689
    7    2    7    2        0.0693236592
    7    3    7    1       -0.0055753646
    7    3    7    2        0.0478668371
    7    3    7    3        0.1145188490
    7    4    7    4        0.0222083429
    7    5    7    5        0.0222083429
    7    6    7    1       -0.0028831125
    7    6    7    2        0.0010793664
    7    6    7    3        0.0117032942
    7    6    7    6        0.0380558801
    7    7    7    1       -0.0049632449
    7    7    7    2        0.0420176858
    7    7    7    3        0.0728762379
    7    7    7    6        0.1270943784
    7    7    7    7        0.7607149354
    8    1    1    1       -0.1221724378
    8    2    1    1        0.0486816264
    8    3    1    1       -0.3707662123
    8    6    1    1        0.0458577085
    8    7    1    1        0.1353179214
    8    8    1    1        0.7840471331
    8    1    2    1        0.0142188558
    8    1    2    2       -0.0165877871
    8    2    2    1       -0.0060095889
    8    2    2    2       -0.0066275002
    8    3    2    1        0.0111442623
    8    3    2    2       -0.1740397599
    8    6    2    1        0.0002704007
    8    6    2    2        0.0385657778
    8    7    2    1       -0.0054849520
    8    7    2    2        0.0248147340
    8    8    2    1       -0.0104242933
    8    8    2    2        0.5946378870
    8    1    3    1       -0.0306389665
    8    1    3    2       -0.0230394385
    8    1    3    3        0.0065126077
    8    2    3    1       -0.0126616855
    8    2    3    2       -0.0456007203
    8    2    3    3        0.0052582012
    8    3    3    1       -0.0014179641
    8    3    3    2       -0.0235508261
    8    3    3    3       -0.1555883274
    8    6    3    1        0.0055401641
    8    6    3    2        0.0341959767
    8    6    3    3        0.0156838440
    8    7    3    1        0.0002391095
    8    7    3    2       -0.0152282129
    8    7    3    3        0.0309275167
    8    8    3    1       -0.0036784460
    8    8    3    2       -0.0420818518
    8    8    3    3        0.6330853210
    8    1    4    4       -0.0033594068
    8    2    4    4        0.0278410908
    8    3    4    4       -0.1458386143
    8    4    4    1        0.0092660729
    8    4    4    2        0.0321427717
    8    4    4    3       -0.0138794099
    8    6    4    4        0.0207505288
    8    7    4    4        0.0304561691
    8    8    4    4        0.5834274926
    8    1    5    5       -0.0033594068
    8    2    5    5        0.0278410908
    8    3    5    5       -0.1458386143
    8    5    5    1        0.0092660729
    8    5    5    2        0.0321427717
    8    5    5    3       -0.0138794099
    8    6    5    5        0.0207505288
    8    7    5    5        0.0304561691
    8    8    5    5        0.5834274926
    8    1    6    1        0.0008807153
    8    1    6    2        0.0068072534
    8    1    6    3        0.0033455946
    8    1    6    6       -0.0042964319
    8    2    6    1        0.0041099168
    8    2    6    2        0.0065966689
    8    2    6    3        0.0104773569
    8    2    6    6        0.0021797174
    8    3    6    1       -0.0030178177
    8    3    6    2        0.0370137625
    8    3    6    3        0.0099301554
    8    3    6    6       -0.0300268152
    8    4    6    4       -0.0022523496
    8    5    6    5       -0.0022523496
    8    6    6    1       -0.0009911042
    8    6    6    2       -0.0056310728
    8    6    6    3        0.0031466533
    8    6    6    6        0.0252784022
    8    7    6    1        0.0015191270
    8    7    6    2       -0.0090204609
    8    7    6    3       -0.0042316178
    8    7    6    6        0.0025647723
    8    8    6    1        0.0034962653
    8    8    6    2       -0.0411579695
    8    8    6    3       -0.0343246297
    8    8    6    6        0.3038573435
    8    1    7    1        0.0127407698
    8    1    7    2        0.0122194786
    8    1    7    3       -0.0033146080
    8    1    7    6       -0.0048102191
    8    1    7    7       -0.0091175703
    8    2    7    1        0.0095771428
    8    2    7    2        0.0019991989
    8    2    7    3       -0.0138563926
    8    2    7    6       -0.0060582465
    8    2    7    7       -0.0187297479
    8    3    7    1       -0.0040760339
    8    3    7    2        0.0159040174
    8    3    7    3        0.0295816191
    8    3    7    6       -0.0282167469
    8    3    7    7       -0.1135535925
    8    4    7    4       -0.0039799655
    8    5    7    5       -0.0039799655
    8    6    7    1       -0.0030746411
    8    6    7    2       -0.0038684751
    8    6    7    3        0.0104115015
    8    6    7    6        0.0107778806
    8    6    7    7        0.0462175350
    8    7    7    1        0.0020701387
    8    7    7    2       -0.0167966102
    8    7    7    3       -0.0320617156
    8    7    7    6        0.0042975265
    8    7    7    7       -0.0085990905
    8    8    7    1        0.0061833766
    8    8    7    2       -0.0152338910
    8    8    7    3       -0.0734265580
    8    8    7    6        0.0531833879
    8    8    7    7        0.4501857061
    8    1    8    1        0.0252437457
    8    2    8    1        0.0100874854
    8    2    8    2        0.0378272032
    8    3    8    1        0.0007992747
    8    3    8    2       -0.0073600733
    8    3    8    3        0.1026921252
    8    4    8    4        0.0194134312
    8    5    8    5        0.0194134312
    8    6    8    1       -0.0040784723
    8    6    8    2        0.0002903014
    8    6    8    3       -0.0226877403
    8    6    8    6        0.0174465472
    8    7    8    1       -0.0002446155
    8    7    8    2        0.0096550290
    8    7    8    3       -0.0205752274
    8    7    8    6        0.0027686470
    8    7    8    7        0.0220161732
    8    8    8    1        0.0024346123
    8    8    8    2       -0.0149063603
    8    8    8    3       -0.0455242897
    8    8    8    6       -0.0120217453
    8    8    8    7        0.0062456062
    8    8    8    8        0.5720619473
    9    4    1    1       -0.4500141148
    9    5    1    1        0.3065912191
    9    9    1    1        1.0563076937
    9    4    2    1        0.0131651387
    9    4    2    2       -0.1839337355
    9    5    2    1       -0.0089693096
    9    5    2    2        0.1253126654
    9    9    2    1       -0.0194518264
    9    9    2    2        0.6868077728
    9    4    3    1       -0.0052828746
    9    4    3    2        0.0049694517
    9    4    3    3       -0.1590850330
    9    5    3    1        0.0035991826
    9    5    3    2       -0.0033856499
    9    5    3    3        0.1083834320
    9    9    3    1        0.0057657049
    9    9    3    2       -0.0311878874
    9    9    3    3        0.6550230929
    9    1    4    1       -0.0362456368
    9    1    4    2       -0.0328290399
    9    1    4    3        0.0100455914
    9    2    4    1       -0.0186008006
    9    2    4    2       -0.0406068731
    9    2    4    3        0.0063661114
    9    3    4    1        0.0047315964
    9    3    4    2        0.0017077417
    9    3    4    3       -0.0109825101
    9    4    4    4       -0.1887992385
    9    5    4    4        0.1143877904
    9    6    4    1        0.0072531379
    9    6    4    2        0.0352724300
    9    6    4    3       -0.0061381606
    9    7    4    1        0.0048674479
    9    7    4    2        0.0103320874
    9    7    4    3        0.0062181586
    9    8    4    1       -0.0057367502
    9    8    4    2       -0.0127091672
    9    8    4    3        0.0225429843
    9    9    4    4        0.7094666308
    9    1    5    1        0.0246938787
    9    1    5    2        0.0223661770
    9    1    5    3       -0.0068439856
    9    2    5    1        0.0126725850
    9    2    5    2        0.0276651561
    9    2    5    3       -0.0043371837
    9    3    5    1       -0.0032236009
    9    3    5    2       -0.0011634716
    9    3    5    3        0.0074823012
    9    4    5    4        0.0073064082
    9    4    5    5       -0.1678982209
    9    5    5    4       -0.0101766831
    9    5    5    5        0.1286274959
    9    6    5    1       -0.0049415081
    9    6    5    2       -0.0240308402
    9    6    5    3        0.0041818825
    9    7    5    1       -0.0033161555
    9    7    5    2       -0.0070391731
    9    7    5    3       -0.0042363845
    9    8    5    1        0.0039084046
    9    8    5    2        0.0086586597
    9    8    5    3       -0.0153583650
    9    9    5    4       -0.0282361215
    9    9    5    5        0.6872587519
    9    1    6    4        0.0060792704
    9    1    6    5       -0.0041417610
    9    2    6    4        0.0144244097
    9    2    6    5       -0.0098272414
    9    3    6    4       -0.0011171966
    9    3    6    5        0.0007611376
    9    4    6    1       -0.0025864118
    9    4    6    2        0.0432149087
    9    4    6    3        0.0139040582
    9    4    6    6       -0.0211269035
    9    5    6    1        0.0017621029
    9    5    6    2       -0.0294419910
    9    5    6    3       -0.0094727299
    9    5    6    6        0.0143935999
    9    6    6    4        0.0021636599
    9    6    6    5       -0.0014740852
    9    7    6    4       -0.0065838088
    9    7    6    5        0.0044854992
    9    8    6    4        0.0005142904
    9    8    6    5       -0.0003503821
    9    9    6    1        0.0044205246
    9    9    6    2       -0.0636112997
    9    9    6    3       -0.0331039455
    9    9    6    6        0.3284918799
    9    1    7    4        0.0077877342
    9    1    7    5       -0.0053057245
    9    2    7    4        0.0126152431
    9    2    7    5       -0.0085946699
    9    3    7    4        0.0064160668
    9    3    7    5       -0.0043712179
    9    4    7    1       -0.0010699290
    9    4    7    2        0.0368988307
    9    4    7    3        0.0489404383
    9    4    7    6       -0.0291147167
    9    4    7    7       -0.0845784955
    9    5    7    1        0.0007289346
    9    5    7    2       -0.0251388948
    9    5    7    3       -0.0333427511
    9    5    7    6        0.0198356367
    9    5    7    7        0.0576226905
    9    6    7    4       -0.0097889358
    9    6    7    5        0.0066691281
    9    7    7    4       -0.0067945458
    9    7    7    5        0.0046290728
    9    8    7    4       -0.0034200105
    9    8    7    5        0.0023300273
    9    9    7    1        0.0030808529
    9    9    7    2       -0.0611199608
    9    9    7    3       -0.0883509911
    9    9    7    6        0.0594294318
    9    9    7    7        0.4717386538
    9    1    8    4       -0.0078498077
    9    1    8    5        0.0053480148
    9    2    8    4       -0.0089214066
    9    2    8    5        0.0060780870
    9    3    8    4        0.0131627982
    9    3    8    5       -0.0089677150
    9    4    8    1        0.0034950804
    9    4    8    2       -0.0095998497
    9    4    8    3        0.0765892580
    9    4    8    6       -0.0090079408
    9    4    8    7       -0.0236712523
    9    4    8    8       -0.0743965031
    9    5    8    1       -0.0023811719
    9    5    8    2        0.0065403051
    9    5    8    3       -0.0521796833
    9    5    8    6        0.0061370420
    9    5    8    7        0.0161270455
    9    5    8    8        0.0506857759
    9    6    8    4        0.0054832379
    9    6    8    5       -0.0037356886
    9    7    8    4       -0.0026636424
    9    7    8    5        0.0018147195
    9    8    8    4        0.0003439116
    9    8    8    5       -0.0002343044
    9    9    8    1       -0.0039607086
    9    9    8    2        0.0178305707
    9    9    8    3       -0.1013000869
    9    9    8    6        0.0125376228
    9    9    8    7        0.0251567529
    9    9    8    8        0.5215249028
    9    1    9    1        0.0500072501
    9    2    9    1        0.0244315586
    9    2    9    2        0.0449931276
    9    3    9    1       -0.0063682922
    9    3    9    2       -0.0101859000
    9    3    9    3        0.0185222625
    9    4    9    4        0.1193345614
    9    5    9    4       -0.0695077228
    9    5    9    5        0.0646663207
    9    6    9    1       -0.0090743984
    9    6    9    2       -0.0040712884
    9    6    9    3       -0.0051596823
    9    6    9    6        0.0227164208
    9    7    9    1       -0.0062870517
    9    7    9    2       -0.0149038472
    9    7    9    3       -0.0034999938
    9    7    9    6       -0.0011793747
    9    7    9    7        0.0099612764
    9    8    9    1        0.0072366489
    9    8    9    2        0.0058124866
    9    8    9    3       -0.0029678699
    9    8    9    6       -0.0030401809
    9    8    9    7        0.0019746680
    9    8    9    8        0.0263256150
    9    9    9    4       -0.1290201412
    9    9    9    5        0.0879004482
    9    9    9    9        0.6456439368
   10    4    1    1       -0.3065912191
   10    5    1    1       -0.4500141148
   10   10    1    1        1.0563076937
   10    4    2    1        0.0089693096
   10    4    2    2       -0.1253126654
   10    5    2    1        0.0131651387
   10    5    2    2       -0.1839337355
   10   10    2    1       -0.0194518264
   10   10    2    2        0.6868077728
   10    4    3    1       -0.0035991826
   10    4    3    2        0.0033856499
   10    4    3    3       -0.1083834320
   10    5    3    1       -0.0052828746
   10    5    3    2        0.0049694517
   10    5    3    3       -0.1590850330
   10   10    3    1        0.0057657049
   10   10    3    2       -0.0311878874
   10   10    3    3        0.6550230929
   10    1    4    1       -0.0246938787
   10    1    4    2       -0.0223661770
   10    1    4    3        0.0068439856
   10    2    4    1       -0.0126725850
   10    2    4    2       -0.0276651561
   10    2    4    3        0.0043371837
   10    3    4    1        0.0032236009
   10    3    4    2        0.0011634716
   10    3    4    3       -0.0074823012
   10    4    4    4       -0.1286274959
   10    5    4    4       -0.1678982209
   10    6    4    1        0.0049415081
   10    6    4    2        0.0240308402
   10    6    4    3       -0.0041818825
   10    7    4    1        0.0033161555
   10    7    4    2        0.0070391731
   10    7    4    3        0.0042363845
   10    8    4    1       -0.0039084046
   10    8    4    2       -0.0086586597
   10    8    4    3        0.0153583650
   10    9    4    4        0.0282361215
   10   10    4    4        0.6872587519
   10    1    5    1       -0.0362456368
   10    1    5    2       -0.0328290399
   10    1    5    3        0.0100455914
   10    2    5    1       -0.0186008006
   10    2    5    2       -0.0406068731
   10    2    5    3        0.0063661114
   10    3    5    1        0.0047315964
   10    3    5    2        0.0017077417
   10    3    5    3       -0.0109825101
   10    4    5    4       -0.0107243345
   10    4    5    5       -0.1143877904
   10    5    5    4       -0.0069332974
   10    5    5    5       -0.1887992385
   10    6    5    1        0.0072531379
   10    6    5    2        0.0352724300
   10    6    5    3       -0.0061381606
   10    7    5    1        0.0048674479
   10    7    5    2        0.0103320874
   10    7    5    3        0.0062181586
   10    8    5    1       -0.0057367502
   10    8    5    2       -0.0127091672
   10    8    5    3        0.0225429843
   10    9    5    4        0.0111565729
   10    9    5    5       -0.0282361215
   10   10    5    4        0.0282361215
   10   10    5    5        0.7094666308
   10    1    6    4        0.0041417610
   10    1    6    5        0.0060792704
   10    2    6    4        0.0098272414
   10    2    6    5        0.0144244097
   10    3    6    4       -0.0007611376
   10    3    6    5       -0.0011171966
   10    4    6    1       -0.0017621029
   10    4    6    2        0.0294419910
   10    4    6    3        0.0094727299
   10    4    6    6       -0.0143935999
   10    5    6    1       -0.0025864118
   10    5    6    2        0.0432149087
   10    5    6    3        0.0139040582
   10    5    6    6       -0.0211269035
   10    6    6    4        0.0014740852
   10    6    6    5        0.0021636599
   10    7    6    4       -0.0044854992
   10    7    6    5       -0.0065838088
   10    8    6    4        0.0003503821
   10    8    6    5        0.0005142904
   10   10    6    1        0.0044205246
   10   10    6    2       -0.0636112997
   10   10    6    3       -0.0331039455
   10   10    6    6        0.3284918799
   10    1    7    4        0.0053057245
   10    1    7    5        0.0077877342
   10    2    7    4        0.0085946699
   10    2    7    5        0.0126152431
   10    3    7    4        0.0043712179
   10    3    7    5        0.0064160668
   10    4    7    1       -0.0007289346
   10    4    7    2        0.0251388948
   10    4    7    3        0.0333427511
   10    4    7    6       -0.0198356367
   10    4    7    7       -0.0576226905
   10    5    7    1       -0.0010699290
   10    5    7    2        0.0368988307
   10    5    7    3        0.0489404383
   10    5    7    6       -0.0291147167
   10    5    7    7       -0.0845784955
   10    6    7    4       -0.0066691281
   10    6    7    5       -0.0097889358
   10    7    7    4       -0.0046290728
   10    7    7    5       -0.0067945458
   10    8    7    4       -0.0023300273
   10    8    7    5       -0.0034200105
   10   10    7    1        0.0030808529
   10   10    7    2       -0.0611199608
   10   10    7    3       -0.0883509911
   10   10    7    6        0.0594294318
   10   10    7    7        0.4717386538
   10    1    8    4       -0.0053480148
   10    1    8    5       -0.0078498077
   10    2    8    4       -0.0060780870
   10    2    8    5       -0.0089214066
   10    3    8    4        0.0089677150
   10    3    8    5        0.0131627982
   10    4    8    1        0.0023811719
   10    4    8    2       -0.0065403051
   10    4    8    3        0.0521796833
   10    4    8    6       -0.0061370420
   10    4    8    7       -0.0161270455
   10    4    8    8       -0.0506857759
   10    5    8    1        0.0034950804
   10    5    8    2       -0.0095998497
   10    5    8    3        0.0765892580
   10    5    8    6       -0.0090079408
   10    5    8    7       -0.0236712523
   10    5    8    8       -0.0743965031
   10    6    8    4        0.0037356886
   10    6    8    5        0.0054832379
   10    7    8    4       -0.0018147195
   10    7    8    5       -0.0026636424
   10    8    8    4        0.0002343044
   10    8    8    5        0.0003439116
   10   10    8    1       -0.0039607086
   10   10    8    2        0.0178305707
   10   10    8    3       -0.1013000869
   10   10    8    6        0.0125376228
   10   10    8    7        0.0251567529
   10   10    8    8        0.5215249028
   10    4    9    4        0.0695077228
   10    4    9    5       -0.0266363903
   10    4    9    9       -0.0828781457
   10    5    9    4        0.0813046310
   10    5    9    5       -0.0695077228
   10    5    9    9       -0.1216484134
   10    9    9    4       -0.0025179712
   10    9    9    5       -0.0036958742
   10   10    9    4       -0.1216484134
   10   10    9    5        0.0828781457
   10   10    9    9        0.5840911978
   10    1   10    1        0.0500072501
   10    2   10    1        0.0244315586
   10    2   10    2        0.0449931276
   10    3   10    1       -0.0063682922
   10    3   10    2       -0.0101859000
   10    3   10    3        0.0185222625
   10    4   10    4        0.0646663207
   10    5   10    4        0.0695077228
   10    5   10    5        0.1193345614
   10    6   10    1       -0.0090743984
   10    6   10    2       -0.0040712884
   10    6   10    3       -0.0051596823
   10    6   10    6        0.0227164208
   10    7   10    1       -0.0062870517
   10    7   10    2       -0.0149038472
   10    7   10    3       -0.0034999938
   10    7   10    6       -0.0011793747
   10    7   10    7        0.0099612764
   10    8   10    1        0.0072366489
   10    8   10    2        0.0058124866
   10    8   10    3       -0.0029678699
   10    8   10    6       -0.0030401809
   10    8   10    7        0.0019746680
   10    8   10    8        0.0263256150
   10    9   10    4       -0.0036758537
   10    9   10    5        0.0025043314
   10    9   10    9        0.0307763695
   10   10   10    4       -0.0879004482
   10   10   10    5       -0.1290201412
   10   10   10   10        0.6456439368
 end_two_electron_integrals
 fcidump
      5.3547348923     1   1   1   1
     -0.5119910303     2   1   1   1
      0.0791732475     2   1   2   1
      1.2425528948     2   2   1   1
     -0.0175852549     2   2   2   1
      0.9091716704     2   2   2   2
      0.1561451038     3   1   1   1
     -0.0181493443     3   1   2   1
      0.0220293081     3   1   2   2
      0.0360263419     3   1   3   1
     -0.0675379274     3   2   1   1
      0.0108323049     3   2   2   1
      0.0586766373     3   2   2   2
      0.0303343230     3   2   3   1
      0.1622892267     3   2   3   2
      1.1671111761     3   3   1   1
     -0.0165793941     3   3   2   1
      0.8207245748     3   3   2   2
     -0.0085652145     3   3   3   1
     -0.0459080834     3   3   3   2
      0.8633144914     3   3   3   3
      0.0375240724     4   1   4   1
      0.0376870032     4   2   4   1
      0.1516288466     4   2   4   2
     -0.0114345798     4   3   4   1
     -0.0350003720     4   3   4   2
      0.0470698635     4   3   4   3
      1.2214123311     4   4   1   1
     -0.0150638035     4   4   2   1
      0.8449665912     4   4   2   2
      0.0057439875     4   4   3   1
     -0.0271629632     4   4   3   2
      0.7845642467     4   4   3   3
      0.8856880556     4   4   4   4
      0.0375240724     5   1   5   1
      0.0376870032     5   2   5   1
      0.1516288466     5   2   5   2
     -0.0114345798     5   3   5   1
     -0.0350003720     5   3   5   2
      0.0470698635     5   3   5   3
      0.0398210197     5   4   5   4
      1.2214123311     5   5   1   1
     -0.0150638035     5   5   2   1
      0.8449665912     5   5   2   2
      0.0057439875     5   5   3   1
     -0.0271629632     5   5   3   2
      0.7845642467     5   5   3   3
      0.8025091233     5   5   4   4
      0.8856880556     5   5   5   5
      0.1315635300     6   1   1   1
     -0.0224126699     6   1   2   1
      0.0015035845     6   1   2   2
     -0.0008222053     6   1   3   1
     -0.0085409617     6   1   3   2
      0.0060593759     6   1   3   3
      0.0027971769     6   1   4   4
      0.0027971769     6   1   5   5
      0.0073719168     6   1   6   1
     -0.1926555248     6   2   1   1
      0.0043023038     6   2   2   1
     -0.1064954963     6   2   2   2
     -0.0089352361     6   2   3   1
     -0.0163144426     6   2   3   2
     -0.0774677329     6   2   3   3
     -0.0912393126     6   2   4   4
     -0.0912393126     6   2   5   5
      0.0002633088     6   2   6   1
      0.0286486053     6   2   6   2
     -0.0810915553     6   3   1   1
      0.0000378891     6   3   2   1
     -0.0472576351     6   3   2   2
     -0.0042011342     6   3   3   1
     -0.0007585144     6   3   3   2
     -0.0410284325     6   3   3   3
     -0.0402544341     6   3   4   4
     -0.0402544341     6   3   5   5
      0.0008483327     6   3   6   1
      0.0148156264     6   3   6   2
      0.0146191829     6   3   6   3
     -0.0069107035     6   4   4   1
     -0.0157075098     6   4   4   2
     -0.0006103937     6   4   4   3
      0.0106168500     6   4   6   4
     -0.0069107035     6   5   5   1
     -0.0157075098     6   5   5   2
     -0.0006103937     6   5   5   3
      0.0106168500     6   5   6   5
      0.3922702936     6   6   1   1
     -0.0009321147     6   6   2   1
      0.3774871604     6   6   2   2
      0.0058912276     6   6   3   1
      0.0407835242     6   6   3   2
      0.3527323788     6   6   3   3
      0.3535388192     6   6   4   4
      0.3535388192     6   6   5   5
     -0.0006711414     6   6   6   1
     -0.0066970472     6   6   6   2
      0.0104958853     6   6   6   3
      0.3423601600     6   6   6   6
      0.1083518138     7   1   1   1
     -0.0216007578     7   1   2   1
     -0.0060147845     7   1   2   2
     -0.0150205030     7   1   3   1
     -0.0214826363     7   1   3   2
      0.0122270228     7   1   3   3
      0.0012038619     7   1   4   4
      0.0012038619     7   1   5   5
      0.0096269414     7   1   6   1
      0.0037129518     7   1   6   2
      0.0024436683     7   1   6   3
     -0.0028639755     7   1   6   6
      0.0178734029     7   1   7   1
     -0.1742511686     7   2   1   1
      0.0028209884     7   2   2   1
     -0.0781914732     7   2   2   2
     -0.0158330912     7   2   3   1
     -0.0124791577     7   2   3   2
     -0.0202572061     7   2   3   3
     -0.0805670390     7   2   4   4
     -0.0805670390     7   2   5   5
      0.0020863304     7   2   6   1
      0.0314471556     7   2   6   2
      0.0193676143     7   2   6   3
      0.0035956910     7   2   6   6
      0.0089186689     7   2   7   1
      0.0693236592     7   2   7   2
     -0.2651142000     7   3   1   1
      0.0070983416     7   3   2   1
     -0.0854126623     7   3   2   2
      0.0051885679     7   3   3   1
      0.0747843140     7   3   3   2
     -0.1162757405     7   3   3   3
     -0.1096379066     7   3   4   4
     -0.1096379066     7   3   5   5
     -0.0026446547     7   3   6   1
      0.0279000774     7   3   6   2
      0.0259948911     7   3   6   3
      0.0215214430     7   3   6   6
     -0.0055753646     7   3   7   1
      0.0478668371     7   3   7   2
      0.1145188490     7   3   7   3
     -0.0091312009     7   4   4   1
     -0.0371980456     7   4   4   2
     -0.0048270377     7   4   4   3
      0.0080800654     7   4   6   4
      0.0222083429     7   4   7   4
     -0.0091312009     7   5   5   1
     -0.0371980456     7   5   5   2
     -0.0048270377     7   5   5   3
      0.0080800654     7   5   6   5
      0.0222083429     7   5   7   5
      0.1499131587     7   6   1   1
     -0.0018471731     7   6   2   1
      0.1086761612     7   6   2   2
      0.0064644404     7   6   3   1
      0.0307633936     7   6   3   2
      0.0922721949     7   6   3   3
      0.0858112262     7   6   4   4
      0.0858112262     7   6   5   5
     -0.0005392153     7   6   6   1
     -0.0132981512     7   6   6   2
     -0.0001428339     7   6   6   3
      0.0379806180     7   6   6   6
     -0.0028831125     7   6   7   1
      0.0010793664     7   6   7   2
      0.0117032942     7   6   7   3
      0.0380558801     7   6   7   6
      0.7222403985     7   7   1   1
     -0.0039143452     7   7   2   1
      0.6480826766     7   7   2   2
      0.0124404342     7   7   3   1
      0.1124504242     7   7   3   2
      0.6122746647     7   7   3   3
      0.5605956651     7   7   4   4
      0.5605956651     7   7   5   5
     -0.0008801482     7   7   6   1
     -0.0352960723     7   7   6   2
      0.0076571087     7   7   6   3
      0.4061265971     7   7   6   6
     -0.0049632449     7   7   7   1
      0.0420176858     7   7   7   2
      0.0728762379     7   7   7   3
      0.1270943784     7   7   7   6
      0.7607149354     7   7   7   7
     -0.1221724378     8   1   1   1
      0.0142188558     8   1   2   1
     -0.0165877871     8   1   2   2
     -0.0306389665     8   1   3   1
     -0.0230394385     8   1   3   2
      0.0065126077     8   1   3   3
     -0.0033594068     8   1   4   4
     -0.0033594068     8   1   5   5
      0.0008807153     8   1   6   1
      0.0068072534     8   1   6   2
      0.0033455946     8   1   6   3
     -0.0042964319     8   1   6   6
      0.0127407698     8   1   7   1
      0.0122194786     8   1   7   2
     -0.0033146080     8   1   7   3
     -0.0048102191     8   1   7   6
     -0.0091175703     8   1   7   7
      0.0252437457     8   1   8   1
      0.0486816264     8   2   1   1
     -0.0060095889     8   2   2   1
     -0.0066275002     8   2   2   2
     -0.0126616855     8   2   3   1
     -0.0456007203     8   2   3   2
      0.0052582012     8   2   3   3
      0.0278410908     8   2   4   4
      0.0278410908     8   2   5   5
      0.0041099168     8   2   6   1
      0.0065966689     8   2   6   2
      0.0104773569     8   2   6   3
[...]
 tce:restart_ignore_failure           logical[4]      Tue Jul 30 17:20:50 2019 
 tce:guess_lr_real                    logical[1]      Tue Jul 30 17:20:50 2019 
 basis:ao basis:tags info                 int[280]    Tue Jul 30 17:20:50 2019 
 tce:skip_t                           logical[1]      Tue Jul 30 17:20:50 2019 
 tce:hbard                                int[1]      Tue Jul 30 17:20:50 2019 
 tce:diagnt1                          logical[1]      Tue Jul 30 17:20:50 2019 
 geometry:geometry:zmt_ijkang_frz        logical[160]    Tue Jul 30 17:20:50 2019 
 tce:read_integrals                   logical[5]      Tue Jul 30 17:20:50 2019 
 tce:bnumfreq                             int[1]      Tue Jul 30 17:20:50 2019 
 tce:ccsdvar                             char[5]      Tue Jul 30 17:20:50 2019 
 tce:lineresp                         logical[1]      Tue Jul 30 17:20:50 2019 
 tce:save_l                           logical[4]      Tue Jul 30 17:20:50 2019 
 tce:ichopx                               int[1]      Tue Jul 30 17:20:50 2019 
 tce:nogamma                          logical[1]      Tue Jul 30 17:20:50 2019 
 scf:dipole                            double[3]      Tue Jul 30 17:20:50 2019 
 geometry:ngeom                           int[1]      Tue Jul 30 17:20:50 2019 
 tce:uact                                 int[1]      Tue Jul 30 17:20:50 2019 
 geometry:geometry:zmt_ijklto             int[640]    Tue Jul 30 17:20:50 2019 
 tce:save_tr                          logical[8]      Tue Jul 30 17:20:50 2019 
 geometry:geometry:zmt_ijklnb             int[640]    Tue Jul 30 17:20:50 2019 
 geometry:geometry:operators           double[2304]   Tue Jul 30 17:20:50 2019 
 tce:zlshiftl                          double[1]      Tue Jul 30 17:20:50 2019 
 tce:skip_tr                          logical[1]      Tue Jul 30 17:20:50 2019 
 basis:ao basis:star nr tags              int[1]      Tue Jul 30 17:20:50 2019 
 geometry:geometry:zmt_ijkang_val         double[160]    Tue Jul 30 17:20:50 2019 
 tce:anumfreq                             int[1]      Tue Jul 30 17:20:50 2019 
 geometry:geometry:zmt_ijklto_nam           char[160]    Tue Jul 30 17:20:50 2019 
 geometry:geometry:zmt_ijklop_frz        logical[160]    Tue Jul 30 17:20:50 2019 
 tce:save_t                           logical[4]      Tue Jul 30 17:20:50 2019 
 geometry:geometry:zmt_varsign         double[1]      Tue Jul 30 17:20:50 2019 
 geometry:geometry:recip vectors         double[3]      Tue Jul 30 17:20:50 2019 
 tce:model                               char[5]      Tue Jul 30 17:20:50 2019 
 tce:maxiter                              int[1]      Tue Jul 30 17:20:50 2019 
 tce:symmetry                         logical[1]      Tue Jul 30 17:20:50 2019 
 tce:save_x                           logical[4]      Tue Jul 30 17:20:50 2019 
 geometry:geometry:no. unique centers            int[1]      Tue Jul 30 17:20:50 2019 
 basis:ao basis:contraction info            int[90000]  Tue Jul 30 17:20:50 2019 
 tce:save_y                           logical[4]      Tue Jul 30 17:20:50 2019 
 geometry:geometry:zmt_izmat              int[3]      Tue Jul 30 17:20:50 2019 
 basis:ao basis:bs_nr_tags                int[1]      Tue Jul 30 17:20:50 2019 
 geometry:geometry:zmt_ijklop_val         double[160]    Tue Jul 30 17:20:50 2019 
 geometry:geometry:group number            int[1]      Tue Jul 30 17:20:50 2019 
 tce:nactv                                int[1]      Tue Jul 30 17:20:50 2019 
 tce:active_va                            int[1]      Tue Jul 30 17:20:50 2019 
 geometry:geometry:recip angles         double[3]      Tue Jul 30 17:20:50 2019 
 tce:active_vb                            int[1]      Tue Jul 30 17:20:50 2019 
 tce:active_oa                            int[1]      Tue Jul 30 17:20:50 2019 
 tce:active_ob                            int[1]      Tue Jul 30 17:20:50 2019 
 geometry:geometry:zmt_varname           char[2]      Tue Jul 30 17:20:50 2019 
 tce:thresh                            double[1]      Tue Jul 30 17:20:50 2019 
 geometry:geometry:system type            int[1]      Tue Jul 30 17:20:50 2019 
 tce:energy                            double[1]      Tue Jul 30 17:21:01 2019 
 tce:nopolar                          logical[1]      Tue Jul 30 17:20:50 2019 
 basis:ao basis:bs_stdname               char[16]     Tue Jul 30 17:20:50 2019 
 geometry:geometry:charges             double[2]      Tue Jul 30 17:20:50 2019 
 tce:respaxis                         logical[3]      Tue Jul 30 17:20:50 2019 
 tce:perturbative                        char[5]      Tue Jul 30 17:20:50 2019 
 scf:multiplicity                        char[8]      Tue Jul 30 17:20:50 2019 
 geometry:geometry:zmt_nizmat             int[1]      Tue Jul 30 17:20:50 2019 
 scf:output vectors                      char[24]     Tue Jul 30 17:20:50 2019 
 basis:ao basis:header                    int[7]      Tue Jul 30 17:20:50 2019 
 geometry:geometry:zmt_cvr_scaling         double[1]      Tue Jul 30 17:20:50 2019 
 geometry:geometry:tags                  char[4]      Tue Jul 30 17:20:50 2019 
 scf:input vectors                       char[24]     Tue Jul 30 17:20:50 2019 
 geometry:geometry:zmt_ijklnb_nam           char[160]    Tue Jul 30 17:20:50 2019 
 geometry:geometry:zmt_ijklto_frz        logical[160]    Tue Jul 30 17:20:50 2019 
 geometry:geometry:include_bqbq        logical[1]      Tue Jul 30 17:20:50 2019 
 tce:qducc                            logical[1]      Tue Jul 30 17:20:50 2019 
 geometry:geometry:zmt_ijklop             int[640]    Tue Jul 30 17:20:50 2019 
 geometry:geometry:group name            char[3]      Tue Jul 30 17:20:50 2019 
 tce:model2e                             char[6]      Tue Jul 30 17:20:50 2019 
 tce:eactmax                           double[1]      Tue Jul 30 17:20:50 2019 
 tce:zlshift2                          double[2]      Tue Jul 30 17:20:50 2019 
 tce:eactmin                           double[1]      Tue Jul 30 17:20:50 2019 
 basisprint:ao basis                  logical[1]      Tue Jul 30 17:20:50 2019 
 tce:oact                                 int[1]      Tue Jul 30 17:20:50 2019 
 tce:zlshift3                          double[2]      Tue Jul 30 17:20:50 2019 
 tce:densmat                          logical[1]      Tue Jul 30 17:20:50 2019 
 tce:nroots                               int[1]      Tue Jul 30 17:20:50 2019 
 geometry:geometry:zmt_ijklto_val         double[160]    Tue Jul 30 17:20:50 2019 
 geometry:geometry:zmt_maxtor             int[1]      Tue Jul 30 17:20:50 2019 
 scf:converged                        logical[1]      Tue Jul 30 17:20:50 2019 
 scf:nelec                                int[1]      Tue Jul 30 17:20:50 2019 
 tce:maxdiff                           double[1]      Tue Jul 30 17:20:50 2019 
 tce:guess_qr_real                    logical[1]      Tue Jul 30 17:20:50 2019 
 basis:ao basis:number of exps and coeffs            int[1]      Tue Jul 30 17:20:50 2019 
 geometry:names                          char[9]      Tue Jul 30 17:20:50 2019 
 geometry:geometry:masses              double[2]      Tue Jul 30 17:20:50 2019 
 tce:zlshift                           double[1]      Tue Jul 30 17:20:50 2019 
 tce:eoms                                 int[1]      Tue Jul 30 17:20:50 2019 
 tce:ampnorms                         logical[1]      Tue Jul 30 17:20:50 2019 
 scf:scftype                             char[4]      Tue Jul 30 17:20:50 2019 
 tce:diis2                                int[1]      Tue Jul 30 17:20:50 2019 
 tce:read_l                           logical[4]      Tue Jul 30 17:20:50 2019 
 tce:enegr                             double[1]      Tue Jul 30 17:21:01 2019 
 basis:ao basis:exps and coeffs         double[54]     Tue Jul 30 17:20:50 2019 
 tce:diis3                                int[1]      Tue Jul 30 17:20:50 2019 
 geometry:geometry:unique centers            int[2]      Tue Jul 30 17:20:50 2019 
 tce:read_lr                          logical[8]      Tue Jul 30 17:20:50 2019 
 geometry:geometry:zmt_ijbond_nam           char[160]    Tue Jul 30 17:20:50 2019 
 geometry:geometry:amatrix             double[9]      Tue Jul 30 17:20:50 2019 
 geometry:geometry:inv nuc expon         double[2]      Tue Jul 30 17:20:50 2019 
 geometry:geometry:zmt_ijklnb_val         double[160]    Tue Jul 30 17:20:50 2019 
 geometry:geometry:vel                 double[6]      Tue Jul 30 17:20:50 2019 
 geometry:geometry:zmt_ijklnb_frz        logical[160]    Tue Jul 30 17:20:50 2019 
 task:status                          logical[1]      Tue Jul 30 17:21:01 2019 
 geometry:geometry:direct volume         double[1]      Tue Jul 30 17:20:50 2019 
 tce:afreq                             double[1]      Tue Jul 30 17:20:50 2019 
 geometry:geometry:num_operators            int[1]      Tue Jul 30 17:20:50 2019 
 tce:read_t                           logical[4]      Tue Jul 30 17:20:50 2019 
 tce:save_interval                        int[1]      Tue Jul 30 17:20:50 2019 
 basis:nbasis                             int[1]      Tue Jul 30 17:20:50 2019 
 file_prefix                             char[15]     Tue Jul 30 17:20:50 2019 
 geometry:geometry:primitive_center           char[2]      Tue Jul 30 17:20:50 2019 
 task:energy                           double[1]      Tue Jul 30 17:21:01 2019 
 geometry:geometry:ncenter                int[1]      Tue Jul 30 17:20:50 2019 
 tce:idiskx                               int[1]      Tue Jul 30 17:20:50 2019 
 tce:damp2                             double[1]      Tue Jul 30 17:20:50 2019 
 geometry:geometry:zmt_nzvar              int[1]      Tue Jul 30 17:20:50 2019 
 tce:quadresp                         logical[1]      Tue Jul 30 17:20:50 2019 
 tce:damp3                             double[1]      Tue Jul 30 17:20:50 2019 
 scf:thresh                            double[1]      Tue Jul 30 17:20:50 2019 
 scf:energy                            double[1]      Tue Jul 30 17:20:50 2019 
 tce:read_tr                          logical[8]      Tue Jul 30 17:20:50 2019 
 tce:read_x                           logical[4]      Tue Jul 30 17:20:50 2019 
 basis:ao basis:assoc ecp name           char[4]      Tue Jul 30 17:20:50 2019 
 tce:read_y                           logical[4]      Tue Jul 30 17:20:50 2019 
 geometry:geometry:zmt_ijbond             int[320]    Tue Jul 30 17:20:50 2019 
 geometry:geometry:zmt_source            char[6]      Tue Jul 30 17:20:50 2019 
 geometry:geometry:setting number            int[1]      Tue Jul 30 17:20:50 2019 
 tce:act_excit_lvl                        int[1]      Tue Jul 30 17:20:50 2019 
 basis:ao basis:bs_tags                  char[4]      Tue Jul 30 17:20:50 2019 
 tce:i4im                                 int[1]      Tue Jul 30 17:20:50 2019 
 scf:tol2e                             double[1]      Tue Jul 30 17:20:50 2019 
 tce:diis                                 int[1]      Tue Jul 30 17:20:50 2019 
 tce:recompf                          logical[1]      Tue Jul 30 17:20:50 2019 
 rtdb:stored:state                    logical[3]      Tue Jul 30 17:20:50 2019 
 scf:alpha irreps                         int[19]     Tue Jul 30 17:20:50 2019 
 tce:module                              char[4]      Tue Jul 30 17:20:50 2019 
 geometry:geometry:zmt_ijbond_frz        logical[160]    Tue Jul 30 17:20:50 2019 
 tce:target                               int[1]      Tue Jul 30 17:20:50 2019 
 tce:left                             logical[1]      Tue Jul 30 17:20:50 2019 


 HDBM usage statistics
 ---------------------
 Reads         = 1951
 Inserts       = 1090
 Replaces      = 374
 Extracts      = 0
 Deletes       = 2166
 Reuses        = 16

 Memory allocs = 10078
 Memory frees  = 10078
 Memory max    = 1519711
 Memory in use = 0

 IO seeks      = 4087
 IO reads      = 2976
 IO writes     = 3289
 IO nread      = 3222288
 IO nwrite     = 2392636

 Summary of allocated global arrays
-----------------------------------
  No active global arrays



                         GA Statistics for process    0
                         ------------------------------

       create   destroy   get      put      acc     scatter   gather  read&inc
calls: 1956     1956     6286     2519     3392        0        0     4055     
number of processes/call -9.52e+13 5.22e+14 2.08e+13 0.00e+00 0.00e+00
bytes total:             1.73e+08 8.93e+06 4.20e+07 0.00e+00 0.00e+00 3.24e+04
bytes remote:            0.00e+00 0.00e+00 0.00e+00 0.00e+00 0.00e+00 0.00e+00
Max memory consumed for GA by this process: 1663800 bytes

MA_summarize_allocated_blocks: starting scan ...
MA_summarize_allocated_blocks: scan completed: 0 heap blocks, 0 stack blocks
MA usage statistics:

	allocation statistics:
					      heap	     stack
					      ----	     -----
	current number of blocks	         0	         0
	maximum number of blocks	        17	        40
	current total bytes		         0	         0
	maximum total bytes		   1060368	  55520424
	maximum total K-bytes		      1061	     55521
	maximum total M-bytes		         2	        56

	calls per routine:
		        39  MA_alloc_get
		        39  MA_allocate_heap
		       165  MA_chop_stack
		        39  MA_free_heap
		         0  MA_free_heap_piece
		     14511  MA_get_index
		         5  MA_get_mbase
		         0  MA_get_next_memhandle
		         0  MA_get_numalign
		        45  MA_get_pointer
		         1  MA_init
		         0  MA_initialized
		         0  MA_init_memhandle_iterator
		       215  MA_inquire_avail
		         1  MA_inquire_heap
		         0  MA_inquire_heap_check_stack
		         0  MA_inquire_heap_no_partition
		         1  MA_inquire_stack
		         0  MA_inquire_stack_check_heap
		         0  MA_inquire_stack_no_partition
		     14277  MA_pop_stack
		         1  MA_print_stats
		     14472  MA_push_get
		     14517  MA_push_stack
		         3  MA_set_auto_verify
		         1  MA_set_error_print
		         3  MA_set_hard_fail
		         1  MA_set_numalign
		      9276  MA_sizeof
		        23  MA_sizeof_overhead
		         1  MA_summarize_allocated_blocks
		         0  MA_trace
		     53105  MA_verify_allocator_stuff


                                     CITATION
                                     --------
                Please cite the following reference when publishing
                           results obtained with NWChem:

                 M. Valiev, E.J. Bylaska, N. Govind, K. Kowalski,
              T.P. Straatsma, H.J.J. van Dam, D. Wang, J. Nieplocha,
                        E. Apra, T.L. Windus, W.A. de Jong
                 "NWChem: a comprehensive and scalable open-source
                  solution for large scale molecular simulations"
                      Comput. Phys. Commun. 181, 1477 (2010)
                           doi:10.1016/j.cpc.2010.04.018

                                      AUTHORS
                                      -------
          E. Apra, E. J. Bylaska, W. A. de Jong, N. Govind, K. Kowalski,
       T. P. Straatsma, M. Valiev, H. J. J. van Dam, D. Wang, T. L. Windus,
        J. Hammond, J. Autschbach, K. Bhaskaran-Nair, J. Brabec, K. Lopata,
    S. A. Fischer, S. Krishnamoorthy, M. Jacquelin, W. Ma, M. Klemm, O. Villa,
      Y. Chen, V. Anisimov, F. Aquino, S. Hirata, M. T. Hackler, V. Konjkov,
            D. Mejia-Rodriguez, T. Risthaus, M. Malagoli, A. Marenich,
   A. Otero-de-la-Roza, J. Mullin, P. Nichols, R. Peverati, J. Pittner, Y. Zhao,
        P.-D. Fan, A. Fonari, M. J. Williamson, R. J. Harrison, J. R. Rehr,
      M. Dupuis, D. Silverstein, D. M. A. Smith, J. Nieplocha, V. Tipparaju,
    M. Krishnan, B. E. Van Kuiken, A. Vazquez-Mayagoitia, L. Jensen, M. Swart,
      Q. Wu, T. Van Voorhis, A. A. Auer, M. Nooijen, L. D. Crosby, E. Brown,
      G. Cisneros, G. I. Fann, H. Fruchtl, J. Garza, K. Hirao, R. A. Kendall,
      J. A. Nichols, K. Tsemekhman, K. Wolinski, J. Anchell, D. E. Bernholdt,
      P. Borowski, T. Clark, D. Clerc, H. Dachsel, M. J. O. Deegan, K. Dyall,
    D. Elwood, E. Glendening, M. Gutowski, A. C. Hess, J. Jaffe, B. G. Johnson,
     J. Ju, R. Kobayashi, R. Kutteh, Z. Lin, R. Littlefield, X. Long, B. Meng,
      T. Nakajima, S. Niu, L. Pollack, M. Rosing, K. Glaesemann, G. Sandrone,
      M. Stave, H. Taylor, G. Thomas, J. H. van Lenthe, A. T. Wong, Z. Zhang.

                                    REFERENCES
                                    ----------

          Where appropriate, please cite the following reference(s) 
          when publishing results obtained with NWChem:


     1. D. E. Bernholdt, E. Apra, H. A. Fruchtl, M.F. Guest, R. J. Harrison, 
        R. A. Kendall, R. A. Kutteh, X. Long, J. B. Nicholas, J. A. Nichols, 
        H. L. Taylor, A. T. Wong, G. I. Fann, R. J. Littlefield and
        J. Nieplocha,
        "Parallel Computational Chemistry Made Easier: 
        The Development of NWChem,"
        Int. J. Quantum Chem. Symposium  29, 475-483 (1995).


     2. M. F. Guest, E. Apra, D. E. Bernholdt, H. A. Fruchtl, R. J. Harrison, 
        R. A. Kendall, R. A. Kutteh, X. Long, J. B. Nicholas, J. A. Nichols, 
        H. L. Taylor, A. T. Wong, G. I. Fann, R. J. Littlefield and
        J. Nieplocha,
        "High Performance Computational Chemistry: NWChem and Fully Distributed
        Parallel Applications", in Advances in Parallel Computing, 10, High
        Performance Computing: Technology, Methods, and Applications, Eds. 
        J. Dongarra, L. Gradinetti, G. Joubert, and J. Kowalik, 
        (Elsevier Science B. V. pp. 395-427, 1995).


     3. M. F. Guest, E. Apra, D. E. Bernholdt, H. A. Fruchtl, R. J. Harrison, 
        R. A. Kendall, R. A. Kutteh, J. B. Nicholas, J. A. Nichols, M. S. Stave,
        A. T. Wong, R. J. Littlefield and J. Nieplocha, "High Performance 
        Computational Chemistry: Towards Fully Distributed Parallel Algorithms",
        in High Performance Computing: Symposium 1995, Grand Challenges in 
        Computer Simulation, Adrian M. Tentner, Editor, Proceedings of the 1995 
        Simulation Multiconference, April 9-13, 1995, Phoenix, Arizona, 
        Simulation Councils, Inc., The Society for Computer Simulation, 
        San Diego, CA, 1995. pp. 511-521.


     4. M. F. Guest, E. Apra, D. E. Bernholdt, H. A. Fruchtl, R. J. Harrison,
        R. A. Kendall, R. A. Kutteh, X. Long, J. B. Nicholas, J. A. Nichols, 
        H. L. Taylor, A. T. Wong, G. I. Fann, R. J. Littlefield and
        J. Nieplocha,
        "Advances in Parallel Distributed Data Software; Computational Chemistry
        and NWChem", in Applied Parallel Computing.  Computations in Physics,
        Chemistry, and Engineering Science, Eds. J. Wasnieski, J. Dongarra, and 
        K. Madsen, Lecture Notes in Computer Science, 1041,
        (Springer-Verlag, Berlin, 278-294, 1996).


     5. M. F. Guest, E. Apra, D. E. Bernholdt, H. A. Fruchtl, R. J. Harrison,
        R. A. Kendall, R. A. Kutteh, X. Long, J. B. Nicholas, J. A. Nichols, 
        H. L. Taylor, A. T. Wong, G. I. Fann, R. J. Littlefield and
        J. Nieplocha, 
        "High-Performance Computing in Chemistry; NWChem", Future 
        Generations Computer Systems  12(4), 273, (1996).


     6. R. A. Kendall, E. Apra, D. E. Bernholdt, E. J. Bylaska, M. Dupuis,
        G. I. Fann, R. J. Harrison, J. Ju, J. A. Nichols, J. Nieplocha,
        T. P. Straatsma, T. L. Windus, A. T. Wong,
        Computer Phys. Comm. 128, 260 (2000).


     7. T. P. Straatsma and V. Helms, in Molecular Dynamics on Parallel
        Computers2000, R. Esser et al. editors, p 70.


     8.  T. P. Straatsma, M. Philippopoulos and J. A. McCammon,
         Computer Phys. Comm. 128, 377 (2000).


     9.  M. Valiev, E. J. Bylaska, A. Gramada, and J. H. Weare,
         Reviews in Modern Quantum Chemistry, pages 1684-1734
         (World Scientific, Singapore, 2002).


    10.  E. J. Bylaska, M. Valiev, R. Kawai, and J. H. Weare,
         Computer Phys. Comm. 143, 11 (2002).


    11.  M. Valiev and J. H. Weare,
         J. Phys. Chem. A, 103, 10588 (1999).



 Total times  cpu:       10.9s     wall:       10.9s
