 argument  1 = originalHF.nw
  NWChem w/ OpenMP: maximum threads =    4



============================== echo of input deck ==============================
start tce_hf_1.19184

echo
memory total 6 gb
print high

geometry units angstrom
symmetry c1
H  0.0000000  0.0000  1.19184
F  0.0000000  0.0000  0.00000
end


basis spherical
H library cc-pvdz
F library cc-pvdz
end

scf
thresh 1.0e-10
tol2e 1.0e-10
singlet
rhf
end

tce
2eorb
2emet 13
thresh 1.0d-8
ccsd
end

set tce:qducc T
set tce:nactv 5

task tce energy

================================================================================


                                         
                                         


              Northwest Computational Chemistry Package (NWChem) 6.8
              ------------------------------------------------------


                    Environmental Molecular Sciences Laboratory
                       Pacific Northwest National Laboratory
                                Richland, WA 99352

                              Copyright (c) 1994-2018
                       Pacific Northwest National Laboratory
                            Battelle Memorial Institute

             NWChem is an open-source computational chemistry package
                        distributed under the terms of the
                      Educational Community License (ECL) 2.0
             A copy of the license is included with this distribution
                              in the LICENSE.TXT file

                                  ACKNOWLEDGMENT
                                  --------------

            This software and its documentation were developed at the
            EMSL at Pacific Northwest National Laboratory, a multiprogram
            national laboratory, operated for the U.S. Department of Energy
            by Battelle under Contract Number DE-AC05-76RL01830. Support
            for this work was provided by the Department of Energy Office
            of Biological and Environmental Research, Office of Basic
            Energy Sciences, and the Office of Advanced Scientific Computing.


           Job information
           ---------------

    hostname        = WE27583
    program         = /Users/lamm799/nwchem/bin/MACX64/nwchem
    date            = Tue Jul 30 17:24:52 2019

    compiled        = Mon_Jul_15_13:12:43_2019
    source          = /Users/lamm799/nwchem
    nwchem branch   = Development
    nwchem revision = nwchem_on_git-975-g459e4567d
    ga revision     = 5.7.0
    use scalapack   = F
    input           = originalHF.nw
    prefix          = tce_hf_1.19184.
    data base       = ./tce_hf_1.19184.db
    status          = startup
    nproc           =        1
    time left       =     -1s



           Memory information
           ------------------

    heap     =  201326588 doubles =   1536.0 Mbytes
    stack    =  201326593 doubles =   1536.0 Mbytes
    global   =  402653184 doubles =   3072.0 Mbytes (distinct from heap & stack)
    total    =  805306365 doubles =   6144.0 Mbytes
    verify   = yes
    hardfail = no 


           Directory information
           ---------------------

  0 permanent = .
  0 scratch   = .




                                NWChem Input Module
                                -------------------



 Scaling coordinates for geometry "geometry" by  1.889725989
 (inverse scale =  0.529177249)

 Turning off AUTOSYM since
 SYMMETRY directive was detected!

     MOLECULAR POINT GROUP NUMBER =  1     SCHOENFLIES SYMBOL = C1        

                --------------- GROUP GENERATORS ---------------

                      1 GENERATORS USED TO FORM THE GROUP

                         PT fold Rotoinversion Operator
                     1.000000  0.000000  0.000000  0.000000
                     0.000000  1.000000  0.000000  0.000000
                     0.000000  0.000000  1.000000  0.000000


The   1 symmetry operators (excl. E) are as follows:



                    ---------- FULL LISTING OF GROUP ----------

                  MATRIX REPRESENTATIONS OF THE GROUP OPERATORS

     EXCLUDING THE IDENTITY OPERATOR THERE ARE  1 OPERATORS IN THIS GROUP

                         pt fold Rotoinversion Operator
                     1.000000  0.000000  0.000000  0.000000
                     0.000000  1.000000  0.000000  0.000000
                     0.000000  0.000000  1.000000  0.000000


                  <<< SYMMETRY OPERATION/ATOM MAPPING BUILT >>>
      Symmetry information
      --------------------

 Group name             C1        
 Group number              1
 Group order               1
 No. of unique centers     2



                  Character table for group C1      

                  1e     
        a          1.000

      Symmetry unique atoms

     1    2

      Mapping of centers


      Group operations



          ------
          auto-z
          ------
     1 autoz failed with cvr_scaling = 1.2 changing to 1.3
  no constraints, skipping    0.0000000000000000     
 Imposing constraints:   iter = 1  dqmax = 0.0D+00
  no constraints, skipping    0.0000000000000000     


                             Geometry "geometry" -> ""
                             -------------------------

 Output coordinates in angstroms (scale by  1.889725989 to convert to a.u.)

  No.       Tag          Charge          X              Y              Z
 ---- ---------------- ---------- -------------- -------------- --------------
    1 H                    1.0000     0.00000000     0.00000000     1.07265600
    2 F                    9.0000     0.00000000     0.00000000    -0.11918400

      Atomic Mass 
      ----------- 

      H                  1.007825
      F                 18.998400


 Effective nuclear repulsion energy (a.u.)       3.9960021823

            Nuclear Dipole moment (a.u.) 
            ----------------------------
        X                 Y               Z
 ---------------- ---------------- ----------------
     0.0000000000     0.0000000000    -0.0000000000



                                Z-matrix (autoz)
                                -------- 

 Units are Angstrom for bonds and degrees for angles

      Type          Name      I     J     K     L     M      Value
      ----------- --------  ----- ----- ----- ----- ----- ----------
    1 Stretch                  1     2                       1.19184


            XYZ format geometry
            -------------------
     2
 geometry
 H                     0.00000000     0.00000000     1.07265600
 F                     0.00000000     0.00000000    -0.11918400

                      Basis "ao basis" -> "" (spherical)
                      -----
  H (Hydrogen)
  ------------
            Exponent  Coefficients 
       -------------- ---------------------------------------------------------
  1 S  1.30100000E+01  0.019685
  1 S  1.96200000E+00  0.137977
  1 S  4.44600000E-01  0.478148

  2 S  1.22000000E-01  1.000000

  3 P  7.27000000E-01  1.000000

  F (Fluorine)
  ------------
            Exponent  Coefficients 
       -------------- ---------------------------------------------------------
  1 S  1.47100000E+04  0.000721
  1 S  2.20700000E+03  0.005553
  1 S  5.02800000E+02  0.028267
  1 S  1.42600000E+02  0.106444
  1 S  4.64700000E+01  0.286814
  1 S  1.67000000E+01  0.448641
  1 S  6.35600000E+00  0.264761
  1 S  1.31600000E+00  0.015333

  2 S  1.47100000E+04 -0.000165
  2 S  2.20700000E+03 -0.001308
  2 S  5.02800000E+02 -0.006495
  2 S  1.42600000E+02 -0.026691
  2 S  4.64700000E+01 -0.073690
  2 S  1.67000000E+01 -0.170776
  2 S  6.35600000E+00 -0.112327
  2 S  1.31600000E+00  0.562814

  3 S  3.89700000E-01  1.000000

  4 P  2.26700000E+01  0.044878
  4 P  4.97700000E+00  0.235718
  4 P  1.34700000E+00  0.508521

  5 P  3.47100000E-01  1.000000

  6 D  1.64000000E+00  1.000000



 Summary of "ao basis" -> "" (spherical)
 ------------------------------------------------------------------------------
       Tag                 Description            Shells   Functions and Types
 ---------------- ------------------------------  ------  ---------------------
 H                          cc-pvdz                  3        5   2s1p
 F                          cc-pvdz                  6       14   3s2p1d



 Setting fock-build task_bf   :      -1
                    maxquartet:   10000
                    maxeri    :  129600
                    maxscr    :       0
                    intacc    : 0.0D+00
                    denscreen : T
                    dentol    : 1.0D-06

                                 NWChem SCF Module
                                 -----------------



  ao basis        = "ao basis"
  functions       =    19
  atoms           =     2
  closed shells   =     5
  open shells     =     0
  charge          =   0.00
  wavefunction    = RHF 
  input vectors   = atomic
  output vectors  = ./tce_hf_1.19184.movecs
  use symmetry    = F
  symmetry adapt  = F


 Summary of "ao basis" -> "ao basis" (spherical)
 ------------------------------------------------------------------------------
       Tag                 Description            Shells   Functions and Types
 ---------------- ------------------------------  ------  ---------------------
 H                          cc-pvdz                  3        5   2s1p
 F                          cc-pvdz                  6       14   3s2p1d




                         Geometry "geometry" -> "geometry"
                         ---------------------------------

 Output coordinates in angstroms (scale by  1.889725989 to convert to a.u.)

  No.       Tag          Charge          X              Y              Z
 ---- ---------------- ---------- -------------- -------------- --------------
    1 H                    1.0000     0.00000000     0.00000000     1.07265600
    2 F                    9.0000     0.00000000     0.00000000    -0.11918400

      Atomic Mass 
      ----------- 

      H                  1.007825
      F                 18.998400


 Effective nuclear repulsion energy (a.u.)       3.9960021823

            Nuclear Dipole moment (a.u.) 
            ----------------------------
        X                 Y               Z
 ---------------- ---------------- ----------------
     0.0000000000     0.0000000000    -0.0000000000



                                Z-matrix (autoz)
                                -------- 

 Units are Angstrom for bonds and degrees for angles

      Type          Name      I     J     K     L     M      Value
      ----------- --------  ----- ----- ----- ----- ----- ----------
    1 Stretch                  1     2                       1.19184


                      Basis "ao basis" -> "ao basis" (spherical)
                      -----
  H (Hydrogen)
  ------------
            Exponent  Coefficients 
       -------------- ---------------------------------------------------------
  1 S  1.30100000E+01  0.019685
  1 S  1.96200000E+00  0.137977
  1 S  4.44600000E-01  0.478148

  2 S  1.22000000E-01  1.000000

  3 P  7.27000000E-01  1.000000

  F (Fluorine)
  ------------
            Exponent  Coefficients 
       -------------- ---------------------------------------------------------
  1 S  1.47100000E+04  0.000721
  1 S  2.20700000E+03  0.005553
  1 S  5.02800000E+02  0.028267
  1 S  1.42600000E+02  0.106444
  1 S  4.64700000E+01  0.286814
  1 S  1.67000000E+01  0.448641
  1 S  6.35600000E+00  0.264761
  1 S  1.31600000E+00  0.015333

  2 S  1.47100000E+04 -0.000165
  2 S  2.20700000E+03 -0.001308
  2 S  5.02800000E+02 -0.006495
  2 S  1.42600000E+02 -0.026691
  2 S  4.64700000E+01 -0.073690
  2 S  1.67000000E+01 -0.170776
  2 S  6.35600000E+00 -0.112327
  2 S  1.31600000E+00  0.562814

  3 S  3.89700000E-01  1.000000

  4 P  2.26700000E+01  0.044878
  4 P  4.97700000E+00  0.235718
  4 P  1.34700000E+00  0.508521

  5 P  3.47100000E-01  1.000000

  6 D  1.64000000E+00  1.000000



    Basis function labels
    ---------------------
       No.  Atm El Type
       ---  --- -- ----
        1    1 H  s          
        2    1 H  s          
        3    1 H  px         
        4    1 H  py         
        5    1 H  pz         
        6    2 F  s          
        7    2 F  s          
        8    2 F  s          
        9    2 F  px         
       10    2 F  py         
       11    2 F  pz         
       12    2 F  px         
       13    2 F  py         
       14    2 F  pz         
       15    2 F  d -2       
       16    2 F  d -1       
       17    2 F  d  0       
       18    2 F  d  1       
       19    2 F  d  2       

 Schwarz integral screening summary 
 ---------------------------------- 

        No. of atom pairs =       3
       No. of shell pairs =      45

 Atomic screening 

   value      no.     value      no.     value      no.     value      no.   
  -------- ------    -------- ------    -------- ------    -------- ------   
  0.00D+00      0    1.00D-13      0    1.00D-12      0    1.00D-11      0
  1.00D-10      0    1.00D-09      0    1.00D-08      0    1.00D-07      0
  1.00D-06      0    1.00D-05      0    1.00D-04      0    1.00D-03      0
  1.00D-02      0    1.00D-01      0    1.00D+00      3    1.00D+01      0


 Shell screening 

   value      no.     value      no.     value      no.     value      no.   
  -------- ------    -------- ------    -------- ------    -------- ------   
  0.00D+00      0    1.00D-13      0    1.00D-12      0    1.00D-11      0
  1.00D-10      0    1.00D-09      0    1.00D-08      0    1.00D-07      0
  1.00D-06      0    1.00D-05      0    1.00D-04      0    1.00D-03      0
  1.00D-02      0    1.00D-01     15    1.00D+00     30    1.00D+01      0



 Forming initial guess at       0.0s


      Superposition of Atomic Density Guess
      -------------------------------------

 Sum of atomic energies:         -99.88314519

      Non-variational initial energy
      ------------------------------

 Total energy =     -99.624128
 1-e energy   =    -147.621163
 2-e energy   =      44.001033
 HOMO         =      -0.601872
 LUMO         =       0.002923


 Setting fock-build task_bf   :      -1
                    maxquartet:   10000
                    maxeri    :  129600
                    maxscr    :       0
                    intacc    : 0.0D+00
                    denscreen : T
                    dentol    : 1.0D-06


 Wrote molecular orbitals to ./tce_hf_1.19184.movecs


 Starting SCF solution at       0.1s

 ready to solve ...                    0


 ----------------------------------------------
         Quadratically convergent ROHF

 Convergence threshold     :          1.000E-10
 Maximum no. of iterations :           30
 Final Fock-matrix accuracy:          1.000E-10
 ----------------------------------------------

   0: nuse=   1(   0.9) avail=   434871Mb (out of   434871Mb) on .

 #quartets = 1.035D+03 #integrals = 4.841D+03 #direct =  0.0% #cached =100.0%


 Integral file          = ./tce_hf_1.19184.aoints.0
 Record size in doubles =  65536        No. of integs per rec  =  43688
 Max. records in memory =      2        Max. records in file   = 826254
 No. of bits per label  =      8        No. of bits per value  =     64


 Wrote rohf: cfock to ./tce_hf_1.19184.cfock


              iter       energy          gnorm     gmax       time
             ----- ------------------- --------- --------- --------
                 1      -99.9170708736  8.49D-01  3.59D-01      0.1

            ----- linear solve (tol: 1.0E-02 prod-acc: 1.0E-08) -----

               iter nbas    rnorm     rnorm-scal   ratio     time
               ---- ---- ----------- ----------- --------- -------
 rohf_wrap: in g_x =    1              0.84927500
 rohf_wrap: out g_x =    1              0.16107005
                  1    1  4.9705E-16  5.8526E-16    0.0000     0.1

                              ----- Line search ------

        step       energy         lsg     num-lsg   num-lsh   lsrat    time
      ------- ---------------- --------- --------- --------- ------- --------
       0.0000     -99.91707087 -1.15D-01  0.00D+00  0.00D+00 0.0D+00      0.1

 Wrote rohf: cfock to ./tce_hf_1.19184.cfock

       1.0000     -99.94840994  5.68D-02  5.46D-02  1.72D-01 4.9D-01      0.1

 Wrote rohf: cfock to ./tce_hf_1.19184.cfock

       0.6698     -99.95728521 -2.70D-03 -2.86D-03  1.80D-01 2.3D-02      0.1

              iter       energy          gnorm     gmax       time
             ----- ------------------- --------- --------- --------
                 2      -99.9572852092  2.32D-01  9.06D-02      0.1

            ----- linear solve (tol: 1.0E-01 prod-acc: 2.8E-08) -----

               iter nbas    rnorm     rnorm-scal   ratio     time
               ---- ---- ----------- ----------- --------- -------
 rohf_wrap: in g_x =    1              0.23206007
 rohf_wrap: out g_x =    1              0.03245916
                  1    1  7.6409E-02  3.2926E-01    0.0000     0.1
 rohf_wrap: in g_x =    1              0.07640890
 rohf_wrap: out g_x =    1              0.01747409
                  2    2  2.8126E-02  1.2120E-01    0.3681     0.1
 rohf_wrap: in g_x =    1              0.02812643
 rohf_wrap: out g_x =    1              0.00374201
                  3    3  5.5622E-03  2.3969E-02    0.1978     0.2

                              ----- Line search ------

        step       energy         lsg     num-lsg   num-lsh   lsrat    time
      ------- ---------------- --------- --------- --------- ------- --------
       0.0000     -99.95728521 -9.20D-03  0.00D+00  0.00D+00 0.0D+00      0.2

 Wrote rohf: cfock to ./tce_hf_1.19184.cfock

       1.0000     -99.96189565 -3.90D-06 -1.10D-05  9.20D-03 4.2D-04      0.2

              iter       energy          gnorm     gmax       time
             ----- ------------------- --------- --------- --------
                 3      -99.9618956493  5.97D-03  3.32D-03      0.2

            ----- linear solve (tol: 6.0E-03 prod-acc: 4.3E-11) -----

               iter nbas    rnorm     rnorm-scal   ratio     time
               ---- ---- ----------- ----------- --------- -------
 rohf_wrap: in g_x =    1              0.00596618
 rohf_wrap: out g_x =    1              0.00081970
                  1    1  1.8688E-03  3.1323E-01    0.0000     0.2
 rohf_wrap: in g_x =    1              0.00186881
 rohf_wrap: out g_x =    1              0.00035160
                  2    2  4.2848E-04  7.1819E-02    0.2293     0.2
 rohf_wrap: in g_x =    1              0.00042848
 rohf_wrap: out g_x =    1              0.00008565
                  3    3  9.6341E-05  1.6148E-02    0.2248     0.2
 rohf_wrap: in g_x =    1              0.00009634
 rohf_wrap: out g_x =    1              0.00001920
                  4    4  1.8478E-05  3.0972E-03    0.1918     0.2

                              ----- Line search ------

        step       energy         lsg     num-lsg   num-lsh   lsrat    time
      ------- ---------------- --------- --------- --------- ------- --------
       0.0000     -99.96189565 -5.07D-06  0.00D+00  0.00D+00 0.0D+00      0.2

 Wrote rohf: cfock to ./tce_hf_1.19184.cfock

       1.0000     -99.96189818 -1.48D-09 -1.27D-09  5.07D-06 2.9D-04      0.2

              iter       energy          gnorm     gmax       time
             ----- ------------------- --------- --------- --------
                 4      -99.9618981836  1.89D-05  7.36D-06      0.2

            ----- linear solve (tol: 1.9E-05 prod-acc: 4.2E-16) -----

               iter nbas    rnorm     rnorm-scal   ratio     time
               ---- ---- ----------- ----------- --------- -------
 rohf_wrap: in g_x =    1              0.00001885
 rohf_wrap: out g_x =    1              0.00000221
                  1    1  4.0603E-06  2.1536E-01    0.0000     0.2
 rohf_wrap: in g_x =    1              0.00000406
 rohf_wrap: out g_x =    1              0.00000055
                  2    2  1.3378E-06  7.0958E-02    0.3295     0.2
 rohf_wrap: in g_x =    1              0.00000134
 rohf_wrap: out g_x =    1              0.00000017
                  3    3  3.3114E-07  1.7564E-02    0.2475     0.2
 rohf_wrap: in g_x =    1              0.00000033
 rohf_wrap: out g_x =    1              0.00000007
                  4    4  5.7571E-08  3.0536E-03    0.1739     0.2
 rohf_wrap: in g_x =    1              0.00000006
 rohf_wrap: out g_x =    1              0.00000001
                  5    5  5.5198E-09  2.9277E-04    0.0959     0.2
 rohf_wrap: in g_x =    1              0.00000001
 rohf_wrap: out g_x =    1              0.00000000
                  6    6  5.2796E-10  2.8003E-05    0.0956     0.2
 rohf_wrap: in g_x =    1              0.00000000
 rohf_wrap: out g_x =    1              0.00000000
                  7    7  3.2494E-11  1.7235E-06    0.0615     0.2

                              ----- Line search ------

        step       energy         lsg     num-lsg   num-lsh   lsrat    time
      ------- ---------------- --------- --------- --------- ------- --------
       0.0000     -99.96189818 -4.47D-11  0.00D+00  0.00D+00 0.0D+00      0.2

 Wrote rohf: cfock to ./tce_hf_1.19184.cfock

       1.0000     -99.96189818  1.97D-18 -1.08D-13  4.47D-11 4.4D-08      0.2

              iter       energy          gnorm     gmax       time
             ----- ------------------- --------- --------- --------
                 5      -99.9618981836  3.59D-11  1.89D-11      0.2

 Wrote molecular orbitals to ./tce_hf_1.19184.movecs



       Final RHF  results 
       ------------------ 

         Total SCF energy =    -99.961898183648
      One-electron energy =   -148.594182196989
      Two-electron energy =     44.636281831003
 Nuclear repulsion energy =      3.996002182338

        Time for solution =      0.1s


             Final eigenvalues
             -----------------

              1      
    1  -26.2804
    2   -1.5172
    3   -0.6481
    4   -0.6076
    5   -0.6076
    6    0.1093
    7    0.6333
    8    1.3329
    9    1.3329
   10    1.5287
   11    1.6327
   12    1.6327
   13    1.8639
   14    2.2477
   15    4.0266
   16    4.0266
   17    4.0954
   18    4.0954
   19    4.6395

                       ROHF Final Molecular Orbital Analysis
                       -------------------------------------

 Vector    1  Occ=2.000000D+00  E=-2.628042D+01
              MO Center= -6.0D-21, -4.0D-20, -1.2D-01, r^2= 1.2D-02
   Bfn.  Coefficient  Atom+Function         Bfn.  Coefficient  Atom+Function  
  ----- ------------  ---------------      ----- ------------  ---------------
     6      1.000598  2 F  s          

 Vector    2  Occ=2.000000D+00  E=-1.517219D+00
              MO Center=  2.6D-17,  8.1D-19, -6.1D-02, r^2= 3.7D-01
   Bfn.  Coefficient  Atom+Function         Bfn.  Coefficient  Atom+Function  
  ----- ------------  ---------------      ----- ------------  ---------------
     8      0.552532  2 F  s                  7      0.490291  2 F  s          

 Vector    3  Occ=2.000000D+00  E=-6.480554D-01
              MO Center= -2.8D-17, -1.7D-17,  1.4D-01, r^2= 7.3D-01
   Bfn.  Coefficient  Atom+Function         Bfn.  Coefficient  Atom+Function  
  ----- ------------  ---------------      ----- ------------  ---------------
    11      0.533372  2 F  pz                14      0.360876  2 F  pz         
     1      0.328331  1 H  s                  8     -0.164570  2 F  s          

 Vector    4  Occ=2.000000D+00  E=-6.075579D-01
              MO Center=  2.8D-18, -5.6D-17, -1.1D-01, r^2= 4.4D-01
   Bfn.  Coefficient  Atom+Function         Bfn.  Coefficient  Atom+Function  
  ----- ------------  ---------------      ----- ------------  ---------------
    10      0.666634  2 F  py                13      0.480753  2 F  py         

 Vector    5  Occ=2.000000D+00  E=-6.075579D-01
              MO Center= -7.6D-17,  3.3D-17, -1.1D-01, r^2= 4.4D-01
   Bfn.  Coefficient  Atom+Function         Bfn.  Coefficient  Atom+Function  
  ----- ------------  ---------------      ----- ------------  ---------------
     9      0.666634  2 F  px                12      0.480753  2 F  px         

 Vector    6  Occ=0.000000D+00  E= 1.093377D-01
              MO Center=  1.6D-17, -4.1D-18,  1.0D+00, r^2= 1.8D+00
   Bfn.  Coefficient  Atom+Function         Bfn.  Coefficient  Atom+Function  
  ----- ------------  ---------------      ----- ------------  ---------------
     2      0.983574  1 H  s                  8     -0.445248  2 F  s          
    14     -0.394238  2 F  pz                11     -0.316428  2 F  pz         
     1      0.233306  1 H  s          

 Vector    7  Occ=0.000000D+00  E= 6.332782D-01
              MO Center= -2.0D-17,  1.5D-17,  1.1D+00, r^2= 1.5D+00
   Bfn.  Coefficient  Atom+Function         Bfn.  Coefficient  Atom+Function  
  ----- ------------  ---------------      ----- ------------  ---------------
     1      1.302179  1 H  s                  2     -1.162573  1 H  s          
    11     -0.285785  2 F  pz                 8      0.248349  2 F  s          

 Vector    8  Occ=0.000000D+00  E= 1.332943D+00
              MO Center=  3.7D-17,  9.2D-17,  5.4D-01, r^2= 9.2D-01
   Bfn.  Coefficient  Atom+Function         Bfn.  Coefficient  Atom+Function  
  ----- ------------  ---------------      ----- ------------  ---------------
    10     -0.619220  2 F  py                 4      0.611211  1 H  py         
    13      0.545390  2 F  py                 9     -0.258267  2 F  px         
     3      0.254926  1 H  px                12      0.227473  2 F  px         

 Vector    9  Occ=0.000000D+00  E= 1.332943D+00
              MO Center=  9.4D-17, -3.8D-17,  5.4D-01, r^2= 9.2D-01
   Bfn.  Coefficient  Atom+Function         Bfn.  Coefficient  Atom+Function  
  ----- ------------  ---------------      ----- ------------  ---------------
     9     -0.619220  2 F  px                 3      0.611211  1 H  px         
    12      0.545390  2 F  px                10      0.258267  2 F  py         
     4     -0.254926  1 H  py                13     -0.227473  2 F  py         

 Vector   10  Occ=0.000000D+00  E= 1.528716D+00
              MO Center= -9.1D-17, -2.7D-17, -5.2D-01, r^2= 8.5D-01
   Bfn.  Coefficient  Atom+Function         Bfn.  Coefficient  Atom+Function  
  ----- ------------  ---------------      ----- ------------  ---------------
    14      1.291762  2 F  pz                11     -0.729755  2 F  pz         
     1     -0.548181  1 H  s                  5      0.516659  1 H  pz         
     7      0.484147  2 F  s                  6      0.161133  2 F  s          

 Vector   11  Occ=0.000000D+00  E= 1.632669D+00
              MO Center=  8.7D-17,  2.7D-17,  3.4D-01, r^2= 1.2D+00
   Bfn.  Coefficient  Atom+Function         Bfn.  Coefficient  Atom+Function  
  ----- ------------  ---------------      ----- ------------  ---------------
    12      0.848619  2 F  px                 3     -0.730600  1 H  px         
     9     -0.609792  2 F  px                13      0.327074  2 F  py         
     4     -0.281587  1 H  py                10     -0.235026  2 F  py         

 Vector   12  Occ=0.000000D+00  E= 1.632669D+00
              MO Center= -2.8D-17,  5.0D-17,  3.4D-01, r^2= 1.2D+00
   Bfn.  Coefficient  Atom+Function         Bfn.  Coefficient  Atom+Function  
  ----- ------------  ---------------      ----- ------------  ---------------
    13      0.848619  2 F  py                 4     -0.730600  1 H  py         
    10     -0.609792  2 F  py                12     -0.327074  2 F  px         
     3      0.281587  1 H  px                 9      0.235026  2 F  px         

 Vector   13  Occ=0.000000D+00  E= 1.863913D+00
              MO Center= -9.4D-17, -9.0D-17,  7.8D-01, r^2= 6.4D-01
   Bfn.  Coefficient  Atom+Function         Bfn.  Coefficient  Atom+Function  
  ----- ------------  ---------------      ----- ------------  ---------------
     5      0.833224  1 H  pz                 7      0.616150  2 F  s          
    11      0.601845  2 F  pz                 8     -0.303413  2 F  s          
    14     -0.270673  2 F  pz                 6      0.220783  2 F  s          

 Vector   14  Occ=0.000000D+00  E= 2.247731D+00
              MO Center= -8.4D-18, -3.8D-17,  2.6D-01, r^2= 1.1D+00
   Bfn.  Coefficient  Atom+Function         Bfn.  Coefficient  Atom+Function  
  ----- ------------  ---------------      ----- ------------  ---------------
     8      2.078115  2 F  s                  7     -1.482536  2 F  s          
     5      0.847384  1 H  pz                14      0.765367  2 F  pz         
     6     -0.655989  2 F  s                  2     -0.526615  1 H  s          
     1     -0.454791  1 H  s          

 Vector   15  Occ=0.000000D+00  E= 4.026553D+00
              MO Center=  4.4D-17,  4.6D-17, -1.2D-01, r^2= 3.0D-01
   Bfn.  Coefficient  Atom+Function         Bfn.  Coefficient  Atom+Function  
  ----- ------------  ---------------      ----- ------------  ---------------
    19      0.971851  2 F  d  2              15      0.235597  2 F  d -2       

 Vector   16  Occ=0.000000D+00  E= 4.026553D+00
              MO Center=  7.1D-17, -9.1D-17, -1.2D-01, r^2= 3.0D-01
   Bfn.  Coefficient  Atom+Function         Bfn.  Coefficient  Atom+Function  
  ----- ------------  ---------------      ----- ------------  ---------------
    15      0.971851  2 F  d -2              19     -0.235597  2 F  d  2       

 Vector   17  Occ=0.000000D+00  E= 4.095422D+00
              MO Center= -6.4D-17,  2.6D-17, -9.0D-02, r^2= 3.5D-01
   Bfn.  Coefficient  Atom+Function         Bfn.  Coefficient  Atom+Function  
  ----- ------------  ---------------      ----- ------------  ---------------
    18      0.852491  2 F  d  1              16      0.530473  2 F  d -1       
     3      0.168070  1 H  px         

 Vector   18  Occ=0.000000D+00  E= 4.095422D+00
              MO Center=  1.9D-17,  1.8D-17, -9.0D-02, r^2= 3.5D-01
   Bfn.  Coefficient  Atom+Function         Bfn.  Coefficient  Atom+Function  
  ----- ------------  ---------------      ----- ------------  ---------------
    16      0.852491  2 F  d -1              18     -0.530473  2 F  d  1       
     4     -0.168070  1 H  py         

 Vector   19  Occ=0.000000D+00  E= 4.639521D+00
              MO Center=  2.9D-18, -1.3D-17,  7.7D-03, r^2= 5.3D-01
   Bfn.  Coefficient  Atom+Function         Bfn.  Coefficient  Atom+Function  
  ----- ------------  ---------------      ----- ------------  ---------------
    17      1.060987  2 F  d  0               8      0.789095  2 F  s          
     5      0.653200  1 H  pz                14      0.584201  2 F  pz         
     1     -0.534342  1 H  s                  7     -0.382494  2 F  s          
     6     -0.194215  2 F  s          


 center of mass
 --------------
 x =   0.00000000 y =   0.00000000 z =  -0.11176667

 moments of inertia (a.u.)
 ------------------
           4.854791591607           0.000000000000           0.000000000000
           0.000000000000           4.854791591607           0.000000000000
           0.000000000000           0.000000000000           0.000000000000

  Mulliken analysis of the total density
  --------------------------------------

   Bfn.    Population  Atom+Function
   ---------------------------------
     1      0.455156    1 H  s          
     2      0.114633    1 H  s          
     3      0.008235    1 H  px         
     4      0.008235    1 H  py         
     5      0.030760    1 H  pz         
     6      2.001171    2 F  s          
     7      0.902185    2 F  s          
     8      1.049972    2 F  s          
     9      1.207816    2 F  px         
    10      1.207816    2 F  py         
    11      0.828647    2 F  pz         
    12      0.783753    2 F  px         
    13      0.783753    2 F  py         
    14      0.615535    2 F  pz         
    15      0.000000    2 F  d -2       
    16      0.000197    2 F  d -1       
    17      0.001942    2 F  d  0       
    18      0.000197    2 F  d  1       
    19      0.000000    2 F  d  2       

    Atom       Charge   Shell Charges
 -----------   ------   -------------------------------------------------------
    1 H    1     0.62   0.46  0.11  0.05
    2 F    9     9.38   2.00  0.90  1.05  3.24  2.18  0.00

       Multipole analysis of the density wrt the origin
       ------------------------------------------------

     L   x y z        total         open         nuclear
     -   - - -        -----         ----         -------
     0   0 0 0     -0.000000      0.000000     10.000000

     1   1 0 0      0.000000      0.000000      0.000000
     1   0 1 0      0.000000      0.000000      0.000000
     1   0 0 1      0.973606      0.000000     -0.000000

     2   2 0 0     -4.182638      0.000000      0.000000
     2   1 1 0     -0.000000      0.000000      0.000000
     2   1 0 1      0.000000      0.000000      0.000000
     2   0 2 0     -4.182638      0.000000      0.000000
     2   0 1 1      0.000000      0.000000      0.000000
     2   0 0 2     -1.784279      0.000000      4.565371


 Wrote molecular orbitals to ./tce_hf_1.19184.movecs


 Parallel integral file used       1 records with       0 large values


 Read molecular orbitals from ./tce_hf_1.19184.movecs


 Schwarz integral screening summary 
 ---------------------------------- 

        No. of atom pairs =       3
       No. of shell pairs =      45

 Atomic screening 

   value      no.     value      no.     value      no.     value      no.   
  -------- ------    -------- ------    -------- ------    -------- ------   
  0.00D+00      0    1.00D-13      0    1.00D-12      0    1.00D-11      0
  1.00D-10      0    1.00D-09      0    1.00D-08      0    1.00D-07      0
  1.00D-06      0    1.00D-05      0    1.00D-04      0    1.00D-03      0
  1.00D-02      0    1.00D-01      0    1.00D+00      3    1.00D+01      0


 Shell screening 

   value      no.     value      no.     value      no.     value      no.   
  -------- ------    -------- ------    -------- ------    -------- ------   
  0.00D+00      0    1.00D-13      0    1.00D-12      0    1.00D-11      0
  1.00D-10      0    1.00D-09      0    1.00D-08      0    1.00D-07      0
  1.00D-06      0    1.00D-05      0    1.00D-04      0    1.00D-03      0
  1.00D-02      0    1.00D-01     15    1.00D+00     30    1.00D+01      0


                   NWChem Extensible Many-Electron Theory Module
                   ---------------------------------------------

              ======================================================
                   This portion of the program was automatically
                  generated by a Tensor Contraction Engine (TCE).
                  The development of this portion of the program
                 and TCE was supported by US Department of Energy,
                Office of Science, Office of Basic Energy Science.
                      TCE is a product of Battelle and PNNL.
              Please cite: S.Hirata, J.Phys.Chem.A 107, 9887 (2003).
              ======================================================

            General Information
            -------------------
      Number of processors :     1
         Wavefunction type : Restricted Hartree-Fock
          No. of electrons :    10
           Alpha electrons :     5
            Beta electrons :     5
           No. of orbitals :    38
            Alpha orbitals :    19
             Beta orbitals :    19
        Alpha frozen cores :     0
         Beta frozen cores :     0
     Alpha frozen virtuals :     0
      Beta frozen virtuals :     0
         Spin multiplicity : singlet 
    Number of AO functions :    19
       Number of AO shells :     9
        Use of symmetry is : off
      Symmetry adaption is : off
         Schwarz screening : 0.10D-09

          Correlation Information
          -----------------------
          Calculation type : Coupled-cluster singles & doubles                           
   Perturbative correction : none                                                        
            Max iterations :      100
        Residual threshold : 0.10D-07
     T(0) DIIS level shift : 0.00D+00
     L(0) DIIS level shift : 0.00D+00
     T(1) DIIS level shift : 0.00D+00
     L(1) DIIS level shift : 0.00D+00
     T(R) DIIS level shift : 0.00D+00
     T(I) DIIS level shift : 0.00D+00
   CC-T/L Amplitude update :  5-th order DIIS
                I/O scheme : Global Array Library
        L-threshold :  0.10D-07
        EOM-threshold :  0.10D-07
 no EOMCCSD initial starts read in
 TCE RESTART OPTIONS
 READ_INT:   F
 WRITE_INT:  F
 READ_TA:    F
 WRITE_TA:   F
 READ_XA:    F
 WRITE_XA:   F
 READ_IN3:   F
 WRITE_IN3:  F
 SLICE:      F
 D4D5:       F
 quantumc:   F
 qrotation:  F
 qducc:      T
 nacto:                         0
 nrotv:                         0
 nrot:                          0

            Memory Information
            ------------------
          Available GA space size is     402652823 doubles
          Available MA space size is     402651564 doubles

 Maximum block size        32 doubles

 tile_dim =     14

 Block   Spin    Irrep     Size     Offset   Alpha
 -------------------------------------------------
   1    alpha     a      5 doubles       0       1
   2    beta      a      5 doubles       5       1
   3    alpha     a     14 doubles      10       3
   4    beta      a     14 doubles      24       3

 Global array virtual files algorithm will be used

 Parallel file system coherency ......... OK

 Setting fock-build task_bf   :      -1
                    maxquartet:   10000
                    maxeri    :  129600
                    maxscr    :       0
                    intacc    : 0.0D+00
                    denscreen : T
                    dentol    : 1.0D-06

   0: nuse=   1(   0.9) avail=   434871Mb (out of   434871Mb) on .

 #quartets = 1.035D+03 #integrals = 4.841D+03 #direct =  0.0% #cached =100.0%


 Integral file          = ./tce_hf_1.19184.aoints.0
 Record size in doubles =  65536        No. of integs per rec  =  43688
 Max. records in memory =      2        Max. records in file   = 826254
 No. of bits per label  =      8        No. of bits per value  =     64


 Fock matrix recomputed
 1-e file size   =              361
 1-e file name   = ./tce_hf_1.19184.f1
 Cpu & wall time / sec            0.1            0.1
 4-electron integrals stored in orbital form

 v2    file size   =            64311
 4-index algorithm nr.  13 is used
 imaxsize =       30
 imaxsize ichop =        0
 Cpu & wall time / sec            0.1            0.1
 T1-number-of-tasks                    1

 t1 file size   =               70
 t1 file name   = ./tce_hf_1.19184.t1
 t1 file handle =       -998
 T2-number-of-boxes                    2

 t2 file size   =             9800
 t2 file name   = ./tce_hf_1.19184.t2
 t2 file handle =       -996

 CCSD iterations
 -----------------------------------------------------------------
 Iter          Residuum       Correlation     Cpu    Wall    V2*C2
 -----------------------------------------------------------------
    1   0.1138128806222  -0.2149794959837     0.0     0.0     0.0
    2   0.0327087211339  -0.2156670447799     0.0     0.0     0.0
    3   0.0129805156230  -0.2189144943201     0.0     0.0     0.0
    4   0.0058936032291  -0.2196751924823     0.0     0.0     0.0
    5   0.0027429879974  -0.2200616917983     0.0     0.0     0.0
 MICROCYCLE DIIS UPDATE:                    5                    5
    6   0.0004571373307  -0.2203254273355     0.0     0.0     0.0
    7   0.0002742847837  -0.2203525665286     0.0     0.0     0.0
    8   0.0001133968976  -0.2203590674136     0.0     0.0     0.0
    9   0.0000682758985  -0.2203602610869     0.0     0.0     0.0
   10   0.0000342002110  -0.2203621541385     0.0     0.0     0.0
 MICROCYCLE DIIS UPDATE:                   10                    5
   11   0.0000026875554  -0.2203638806671     0.0     0.0     0.0
   12   0.0000008057571  -0.2203639906329     0.0     0.0     0.0
   13   0.0000003083487  -0.2203640476566     0.0     0.0     0.0
   14   0.0000001331427  -0.2203640649054     0.0     0.0     0.0
   15   0.0000000571941  -0.2203640714881     0.0     0.0     0.0
 MICROCYCLE DIIS UPDATE:                   15                    5
   16   0.0000000072953  -0.2203640760097     0.0     0.0     0.0
 -----------------------------------------------------------------
 Iterations converged
 CCSD correlation energy / hartree =        -0.220364076009704
 CCSD total energy / hartree       =      -100.182262259657819

 Singles contributions

 Doubles contributions
 Ground state specification:
 exp(T)|Ref>~(1+T)|Ref>
 ------- a(p)+/a(q) strings ----------

 singles norm

 doubles norm

 Reference string
   1.0000000000000000      :(1a)+ (2a)+ (3a)+ (4a)+ (5a)+ (1b)+ (2b)+ (3b)+ (4b)+ (5b)+ |0>

 Singles strings

 Doubles strings
 -------------------------------------
 enrep_tce =    3.9960021823376319     
  EHF(total)         =       -99.96189818
  Shift (HFtot-HFA)  =         0.00000000
 ALL OCCUPIED ORBITALS ARE ACTIVE IN DUCC --> NO SHIFT
 Number of active orbitals                   10
 Number of active alpha electrons                    5
 Number of active beta electrons                    5
  nos                    10
  nvs                    28
 noas                     5
 nobs                     5
 nvas                    14
 nvbs                    14
 nactv                     5
 From DUCC CCSD corr. ene. -0.22036407600964200     
 From DUCC CCSD corr. ene.-e-part  0.15287183424918679     
 begin_one_electron_integrals
    1    1       -40.8610413891
    1    2         0.7462952777
    1    3        -0.1115296250
    1    6        -0.1411719919
    1    7        -0.0380069307
    1   10         0.2683584609
    2    1         0.7462952777
    2    2        -9.2571586426
    2    3         0.3419764363
    2    6         0.7887470569
    2    7         0.1854133954
    2   10        -0.7982740925
    3    1        -0.1115296250
    3    2         0.3419764363
    3    3        -7.4306244265
    3    6         1.5598250012
    3    7         0.8806060147
    3   10         1.6813357365
    4    4        -8.3900632182
    4    8         1.7068356419
    4    9        -0.6164444158
    5    5        -8.3900632182
    5    8         0.6164444158
    5    9         1.7068356419
    6    1        -0.1411719919
    6    2         0.7887470569
    6    3         1.5598250012
    6    6        -4.2004534011
    6    7        -1.2768184492
    6   10        -0.5993225469
    7    1        -0.0380069307
    7    2         0.1854133954
    7    3         0.8806060147
    7    6        -1.2768184492
    7    7        -3.5529245629
    7   10        -0.5273216132
    8    4         1.7068356419
    8    5         0.6164444158
    8    8        -4.6040696208
    9    4        -0.6164444158
    9    5         1.7068356419
    9    9        -4.6040696208
   10    1         0.2683584609
   10    2        -0.7982740925
   10    3         1.6813357365
   10    6        -0.5993225469
   10    7        -0.5273216132
   10   10        -5.1283750801
 end_one_electron_integrals
 begin_two_electron_integrals
    1    1    1    1        5.3564341810
    2    1    1    1       -0.5319541413
    2    2    1    1        1.2610090552
    2    1    2    1        0.0841102918
    2    2    2    1       -0.0231318068
    2    2    2    2        0.8752329112
    3    1    1    1        0.0831295569
    3    2    1    1       -0.0897825036
    3    3    1    1        1.0049871401
    3    1    2    1       -0.0124902926
    3    1    2    2        0.0067783052
    3    2    2    1        0.0046033704
    3    2    2    2       -0.0252633712
    3    3    2    1       -0.0114557090
    3    3    2    2        0.7432286880
    3    1    3    1        0.0269173938
    3    2    3    1        0.0273791862
    3    2    3    2        0.1431485415
    3    3    3    1       -0.0024831553
    3    3    3    2       -0.0205534113
    3    3    3    3        0.7083403785
    4    4    1    1        1.2245696604
    4    4    2    1       -0.0159896282
    4    4    2    2        0.8499354751
    4    4    3    1        0.0027804663
    4    4    3    2       -0.0432484950
    4    4    3    3        0.6983398464
    4    1    4    1        0.0369999553
    4    2    4    1        0.0392533524
    4    2    4    2        0.1632943623
    4    3    4    1       -0.0057814258
    4    3    4    2       -0.0193102089
    4    3    4    3        0.0335233410
    4    4    4    4        0.8833605637
    5    5    1    1        1.2245696604
    5    5    2    1       -0.0159896282
    5    5    2    2        0.8499354751
    5    5    3    1        0.0027804663
    5    5    3    2       -0.0432484950
    5    5    3    3        0.6983398464
    5    5    4    4        0.8012207307
    5    1    5    1        0.0369999553
    5    2    5    1        0.0392533524
    5    2    5    2        0.1632943623
    5    3    5    1       -0.0057814258
    5    3    5    2       -0.0193102089
    5    3    5    3        0.0335233410
    5    4    5    4        0.0390818500
    5    5    5    5        0.8833605637
    6    1    1    1        0.1077036450
    6    2    1    1       -0.1546527378
    6    3    1    1       -0.2858773934
    6    6    1    1        0.5262274258
    6    1    2    1       -0.0184901784
    6    1    2    2        0.0023369606
    6    2    2    1        0.0035908183
    6    2    2    2       -0.0884375090
    6    3    2    1        0.0040641228
    6    3    2    2       -0.1678543177
    6    6    2    1       -0.0040893077
    6    6    2    2        0.4397620068
    6    1    3    1       -0.0121776521
    6    1    3    2       -0.0172951809
    6    1    3    3        0.0045867959
    6    2    3    1       -0.0149807596
    6    2    3    2       -0.0499368842
    6    2    3    3       -0.0439672366
    6    3    3    1       -0.0008523393
    6    3    3    2        0.0367756918
    6    3    3    3       -0.1116589344
    6    6    3    1        0.0078865427
    6    6    3    2        0.0474162032
    6    6    3    3        0.4486399849
    6    1    4    4        0.0022583586
    6    2    4    4       -0.0808557758
    6    3    4    4       -0.1554702771
    6    4    4    1       -0.0066330463
    6    4    4    2       -0.0210736896
    6    4    4    3       -0.0126018052
    6    6    4    4        0.4173436185
    6    1    5    5        0.0022583586
    6    2    5    5       -0.0808557758
    6    3    5    5       -0.1554702771
    6    5    5    1       -0.0066330463
    6    5    5    2       -0.0210736896
    6    5    5    3       -0.0126018052
    6    6    5    5        0.4173436185
    6    1    6    1        0.0127704819
    6    2    6    1        0.0079915001
    6    2    6    2        0.0500259122
    6    3    6    1       -0.0003682041
    6    3    6    2        0.0312955711
    6    3    6    3        0.1007820333
    6    4    6    4        0.0182071725
    6    5    6    5        0.0182071725
    6    6    6    1       -0.0032647201
    6    6    6    2       -0.0256511582
    6    6    6    3        0.0056631043
    6    6    6    6        0.4161717346
    7    1    1    1        0.0286141740
    7    2    1    1       -0.0415038746
    7    3    1    1       -0.1940815143
    7    6    1    1        0.1961591506
    7    7    1    1        0.4656892578
    7    1    2    1       -0.0052862174
    7    1    2    2       -0.0004644733
    7    2    2    1        0.0008027656
    7    2    2    2       -0.0200561359
    7    3    2    1        0.0044763704
    7    3    2    2       -0.0851735408
    7    6    2    1       -0.0030792794
    7    6    2    2        0.1317430570
    7    7    2    1       -0.0023340413
    7    7    2    2        0.4240790365
    7    1    3    1       -0.0119566012
    7    1    3    2       -0.0137107742
    7    1    3    3        0.0031564458
    7    2    3    1       -0.0099854513
    7    2    3    2       -0.0258574609
    7    2    3    3        0.0137882871
    7    3    3    1        0.0035285698
    7    3    3    2        0.0568764042
    7    3    3    3       -0.0295338340
    7    6    3    1        0.0032763622
    7    6    3    2        0.0195869996
    7    6    3    3        0.1427491456
    7    7    3    1        0.0049442073
    7    7    3    2        0.0699384984
    7    7    3    3        0.4814758478
    7    1    4    4        0.0002777113
    7    2    4    4       -0.0224827783
    7    3    4    4       -0.0859585661
    7    4    4    1       -0.0034673583
    7    4    4    2       -0.0177047080
    7    4    4    3       -0.0091256425
    7    6    4    4        0.1166107150
    7    7    4    4        0.3965240289
    7    1    5    5        0.0002777113
    7    2    5    5       -0.0224827783
    7    3    5    5       -0.0859585661
    7    5    5    1       -0.0034673583
    7    5    5    2       -0.0177047080
    7    5    5    3       -0.0091256425
    7    6    5    5        0.1166107150
    7    7    5    5        0.3965240289
    7    1    6    1        0.0086123009
    7    1    6    2        0.0069093747
    7    1    6    3       -0.0001397851
    7    1    6    6       -0.0030305601
    7    2    6    1        0.0058488507
    7    2    6    2        0.0276485429
    7    2    6    3        0.0152682747
    7    2    6    6        0.0043810531
    7    3    6    1       -0.0030970252
    7    3    6    2        0.0145154550
    7    3    6    3        0.0822714685
    7    3    6    6        0.0344261859
    7    4    6    4        0.0099329337
    7    5    6    5        0.0099329337
    7    6    6    1       -0.0009980969
    7    6    6    2       -0.0130287611
    7    6    6    3       -0.0070030533
    7    6    6    6        0.0832448074
    7    7    6    1       -0.0020333846
    7    7    6    2       -0.0087616728
    7    7    6    3        0.0508208260
    7    7    6    6        0.4424888551
    7    1    7    1        0.0067051116
    7    2    7    1        0.0049082582
    7    2    7    2        0.0236266004
    7    3    7    1       -0.0022253953
    7    3    7    2        0.0184862328
    7    3    7    3        0.1005792909
    7    4    7    4        0.0094322372
    7    5    7    5        0.0094322372
    7    6    7    1       -0.0010492238
    7    6    7    2        0.0110881937
    7    6    7    3        0.0351294848
    7    6    7    6        0.0794124716
    7    7    7    1       -0.0017904900
    7    7    7    2        0.0319087507
    7    7    7    3        0.1171089609
    7    7    7    6        0.1406183284
    7    7    7    7        0.5815415303
    8    4    1    1       -0.3888186282
    8    5    1    1       -0.1404265685
    8    8    1    1        0.7844609178
    8    4    2    1        0.0110832765
    8    4    2    2       -0.1607657380
    8    5    2    1        0.0040028599
    8    5    2    2       -0.0580624982
    8    8    2    1       -0.0111986723
    8    8    2    2        0.5862505997
    8    4    3    1        0.0006930621
    8    4    3    2        0.0347430514
    8    4    3    3       -0.1034562680
    8    5    3    1        0.0002503078
    8    5    3    2        0.0125478749
    8    5    3    3       -0.0373644873
    8    8    3    1        0.0045881705
    8    8    3    2        0.0409484531
    8    8    3    3        0.5713140864
    8    1    4    1       -0.0313983465
    8    1    4    2       -0.0298309889
    8    1    4    3        0.0046592821
    8    2    4    1       -0.0171916680
    8    2    4    2       -0.0365594970
    8    2    4    3        0.0139032668
    8    3    4    1        0.0056711408
    8    3    4    2        0.0290145516
    8    3    4    3       -0.0022127565
    8    4    4    4       -0.1745027806
    8    5    4    4       -0.0547055042
    8    6    4    1        0.0045506105
    8    6    4    2        0.0241109766
    8    6    4    3        0.0082817661
    8    7    4    1        0.0008081856
    8    7    4    2        0.0017025816
    8    7    4    3        0.0088797505
    8    8    4    4        0.5842442962
    8    1    5    1       -0.0113398941
    8    1    5    2       -0.0107738238
    8    1    5    3        0.0016827563
    8    2    5    1       -0.0062089796
    8    2    5    2       -0.0132039062
    8    2    5    3        0.0050213336
    8    3    5    1        0.0020482013
    8    3    5    2        0.0104789576
    8    3    5    3       -0.0007991639
    8    4    5    4       -0.0041936247
    8    4    5    5       -0.1514707603
    8    5    5    4       -0.0114205466
    8    5    5    5       -0.0630237979
    8    6    5    1        0.0016435082
    8    6    5    2        0.0087079720
    8    6    5    3        0.0029910604
    8    7    5    1        0.0002918860
    8    7    5    2        0.0006149080
    8    7    5    3        0.0032070297
    8    8    5    4        0.0116637854
    8    8    5    5        0.5561616642
    8    1    6    4        0.0049279953
    8    1    6    5        0.0017798053
    8    2    6    4        0.0104842782
    8    2    6    5        0.0037865243
    8    3    6    4        0.0059367978
    8    3    6    5        0.0021441466
    8    4    6    1       -0.0032483713
    8    4    6    2        0.0278783765
    8    4    6    3        0.0584057858
    8    4    6    6       -0.0279822988
    8    5    6    1       -0.0011731888
    8    5    6    2        0.0100686142
    8    5    6    3        0.0210939587
    8    5    6    6       -0.0101061470
    8    6    6    4       -0.0019051136
    8    6    6    5       -0.0006880549
    8    7    6    4       -0.0028570443
    8    7    6    5       -0.0010318562
    8    8    6    1        0.0004527062
    8    8    6    2       -0.0348229549
    8    8    6    3       -0.0177194840
    8    8    6    6        0.4459199358
    8    1    7    4        0.0024061133
    8    1    7    5        0.0008689970
    8    2    7    4        0.0016388055
    8    2    7    5        0.0005918745
    8    3    7    4        0.0033337344
    8    3    7    5        0.0012040187
    8    4    7    1       -0.0015319744
    8    4    7    2        0.0077659523
    8    4    7    3        0.0471356804
    8    4    7    6       -0.0225857356
    8    4    7    7       -0.0069611393
    8    5    7    1       -0.0005532912
    8    5    7    2        0.0028047679
    8    5    7    3        0.0170236233
    8    5    7    6       -0.0081571127
    8    5    7    7       -0.0025141000
    8    6    7    4       -0.0053782103
    8    6    7    5       -0.0019424059
    8    7    7    4        0.0004582000
    8    7    7    5        0.0001654845
    8    8    7    1       -0.0007510638
    8    8    7    2        0.0082468686
    8    8    7    3        0.0372960951
    8    8    7    6        0.1235201452
    8    8    7    7        0.4977193337
    8    1    8    1        0.0288389485
    8    2    8    1        0.0152234835
    8    2    8    2        0.0368177786
    8    3    8    1       -0.0047934179
    8    3    8    2        0.0055971218
    8    3    8    3        0.0397292098
    8    4    8    4        0.1008102158
    8    5    8    4        0.0319509429
    8    5    8    5        0.0238826543
    8    6    8    1       -0.0036483052
    8    6    8    2        0.0087261267
    8    6    8    3        0.0283305757
    8    6    8    6        0.0374652502
    8    7    8    1       -0.0005886206
    8    7    8    2        0.0066244762
    8    7    8    3        0.0198558522
    8    7    8    6        0.0218001453
    8    7    8    7        0.0276475249
    8    8    8    4       -0.0598859582
    8    8    8    5       -0.0216285409
    8    8    8    8        0.5888731312
    9    4    1    1        0.1404265685
    9    5    1    1       -0.3888186282
    9    9    1    1        0.7844609178
    9    4    2    1       -0.0040028599
    9    4    2    2        0.0580624982
    9    5    2    1        0.0110832765
    9    5    2    2       -0.1607657380
    9    9    2    1       -0.0111986723
    9    9    2    2        0.5862505997
    9    4    3    1       -0.0002503078
    9    4    3    2       -0.0125478749
    9    4    3    3        0.0373644873
    9    5    3    1        0.0006930621
    9    5    3    2        0.0347430514
    9    5    3    3       -0.1034562680
    9    9    3    1        0.0045881705
    9    9    3    2        0.0409484531
    9    9    3    3        0.5713140864
    9    1    4    1        0.0113398941
    9    1    4    2        0.0107738238
    9    1    4    3       -0.0016827563
    9    2    4    1        0.0062089796
    9    2    4    2        0.0132039062
    9    2    4    3       -0.0050213336
    9    3    4    1       -0.0020482013
    9    3    4    2       -0.0104789576
    9    3    4    3        0.0007991639
    9    4    4    4        0.0630237979
    9    5    4    4       -0.1514707603
    9    6    4    1       -0.0016435082
    9    6    4    2       -0.0087079720
    9    6    4    3       -0.0029910604
    9    7    4    1       -0.0002918860
    9    7    4    2       -0.0006149080
    9    7    4    3       -0.0032070297
    9    8    4    4       -0.0116637854
    9    9    4    4        0.5561616642
    9    1    5    1       -0.0313983465
    9    1    5    2       -0.0298309889
    9    1    5    3        0.0046592821
    9    2    5    1       -0.0171916680
    9    2    5    2       -0.0365594970
    9    2    5    3        0.0139032668
    9    3    5    1        0.0056711408
    9    3    5    2        0.0290145516
    9    3    5    3       -0.0022127565
    9    4    5    4       -0.0116114737
    9    4    5    5        0.0547055042
    9    5    5    4        0.0041246691
    9    5    5    5       -0.1745027806
    9    6    5    1        0.0045506105
    9    6    5    2        0.0241109766
    9    6    5    3        0.0082817661
    9    7    5    1        0.0008081856
    9    7    5    2        0.0017025816
    9    7    5    3        0.0088797505
    9    8    5    4        0.0141272360
    9    8    5    5        0.0116637854
    9    9    5    4       -0.0116637854
    9    9    5    5        0.5842442962
    9    1    6    4       -0.0017798053
    9    1    6    5        0.0049279953
    9    2    6    4       -0.0037865243
    9    2    6    5        0.0104842782
    9    3    6    4       -0.0021441466
    9    3    6    5        0.0059367978
    9    4    6    1        0.0011731888
    9    4    6    2       -0.0100686142
    9    4    6    3       -0.0210939587
    9    4    6    6        0.0101061470
    9    5    6    1       -0.0032483713
    9    5    6    2        0.0278783765
    9    5    6    3        0.0584057858
    9    5    6    6       -0.0279822988
    9    6    6    4        0.0006880549
    9    6    6    5       -0.0019051136
    9    7    6    4        0.0010318562
    9    7    6    5       -0.0028570443
    9    9    6    1        0.0004527062
    9    9    6    2       -0.0348229549
    9    9    6    3       -0.0177194840
    9    9    6    6        0.4459199358
    9    1    7    4       -0.0008689970
    9    1    7    5        0.0024061133
    9    2    7    4       -0.0005918745
    9    2    7    5        0.0016388055
    9    3    7    4       -0.0012040187
    9    3    7    5        0.0033337344
    9    4    7    1        0.0005532912
    9    4    7    2       -0.0028047679
    9    4    7    3       -0.0170236233
    9    4    7    6        0.0081571127
    9    4    7    7        0.0025141000
    9    5    7    1       -0.0015319744
    9    5    7    2        0.0077659523
    9    5    7    3        0.0471356804
    9    5    7    6       -0.0225857356
    9    5    7    7       -0.0069611393
    9    6    7    4        0.0019424059
    9    6    7    5       -0.0053782103
    9    7    7    4       -0.0001654845
    9    7    7    5        0.0004582000
    9    9    7    1       -0.0007510638
    9    9    7    2        0.0082468686
    9    9    7    3        0.0372960951
    9    9    7    6        0.1235201452
    9    9    7    7        0.4977193337
    9    4    8    4       -0.0319509429
    9    4    8    5        0.0036799242
    9    4    8    8        0.0204417274
    9    5    8    4        0.0732476373
    9    5    8    5        0.0319509429
    9    5    8    8       -0.0565998621
    9    8    8    4        0.0006085204
    9    8    8    5       -0.0016848954
    9    9    8    4       -0.0565998621
    9    9    8    5       -0.0204417274
    9    9    8    8        0.5389939669
    9    1    9    1        0.0288389485
    9    2    9    1        0.0152234835
    9    2    9    2        0.0368177786
    9    3    9    1       -0.0047934179
    9    3    9    2        0.0055971218
    9    3    9    3        0.0397292098
    9    4    9    4        0.0238826543
    9    5    9    4       -0.0319509429
    9    5    9    5        0.1008102158
    9    6    9    1       -0.0036483052
    9    6    9    2        0.0087261267
    9    6    9    3        0.0283305757
    9    6    9    6        0.0374652502
    9    7    9    1       -0.0005886206
    9    7    9    2        0.0066244762
    9    7    9    3        0.0198558522
    9    7    9    6        0.0218001453
    9    7    9    7        0.0276475249
    9    8    9    4       -0.0016012008
    9    8    9    5       -0.0005782931
    9    8    9    8        0.0249395822
    9    9    9    4        0.0216285409
    9    9    9    5       -0.0598859582
    9    9    9    9        0.5888731312
   10    1    1    1       -0.2085608425
   10    2    1    1        0.1965674730
   10    3    1    1       -0.3748167233
   10    6    1    1        0.1437425566
   10    7    1    1        0.1373411537
   10   10    1    1        0.9362477758
   10    1    2    1        0.0328015740
   10    1    2    2       -0.0115914642
   10    2    2    1       -0.0091145508
   10    2    2    2        0.0738347098
   10    3    2    1        0.0117230917
   10    3    2    2       -0.1563030226
   10    6    2    1       -0.0045467792
   10    6    2    2        0.0507404426
   10    7    2    1       -0.0052110414
   10    7    2    2        0.0408546401
   10   10    2    1       -0.0169782808
   10   10    2    2        0.6478072250
   10    1    3    1       -0.0336714885
   10    1    3    2       -0.0267854993
   10    1    3    3        0.0005925426
   10    2    3    1       -0.0131590566
   10    2    3    2       -0.0410302821
   10    2    3    3        0.0499918237
   10    3    3    1        0.0033238742
   10    3    3    2       -0.0015711082
   10    3    3    3       -0.1330040963
   10    6    3    1        0.0023694532
   10    6    3    2        0.0191907217
   10    6    3    3        0.0463684858
   10    7    3    1       -0.0023156879
   10    7    3    2       -0.0206346045
   10    7    3    3        0.0252566982
   10   10    3    1       -0.0123872145
   10   10    3    2       -0.0998968986
   10   10    3    3        0.6050828931
   10    1    4    4       -0.0052437236
   10    2    4    4        0.0822819696
   10    3    4    4       -0.1432658466
   10    4    4    1        0.0120982916
   10    4    4    2        0.0309261066
   10    4    4    3       -0.0106606479
   10    6    4    4        0.0430979603
   10    7    4    4        0.0409548484
   10    8    4    1       -0.0095743663
   10    8    4    2       -0.0308030269
   10    8    4    3        0.0178269050
   10    9    4    1        0.0034578986
   10    9    4    2        0.0111248872
   10    9    4    3       -0.0064384032
   10   10    4    4        0.6329063805
   10    1    5    5       -0.0052437236
   10    2    5    5        0.0822819696
   10    3    5    5       -0.1432658466
   10    5    5    1        0.0120982916
   10    5    5    2        0.0309261066
   10    5    5    3       -0.0106606479
   10    6    5    5        0.0430979603
   10    7    5    5        0.0409548484
   10    8    5    1       -0.0034578986
   10    8    5    2       -0.0111248872
   10    8    5    3        0.0064384032
   10    9    5    1       -0.0095743663
   10    9    5    2       -0.0308030269
   10    9    5    3        0.0178269050
   10   10    5    5        0.6329063805
   10    1    6    1        0.0095407425
   10    1    6    2        0.0156827147
   10    1    6    3        0.0019368718
   10    1    6    6       -0.0086019620
   10    2    6    1        0.0104384213
   10    2    6    2        0.0044234201
   10    2    6    3       -0.0146168404
   10    2    6    6        0.0116715980
   10    3    6    1       -0.0052372812
   10    3    6    2        0.0264482535
   10    3    6    3        0.0416057901
   10    3    6    6       -0.0545712652
   10    4    6    4       -0.0016139752
   10    5    6    5       -0.0016139752
   10    6    6    1       -0.0000402901
   10    6    6    2       -0.0152893832
   10    6    6    3       -0.0044665167
   10    6    6    6        0.0403194963
   10    7    6    1        0.0027255174
   10    7    6    2       -0.0057330139
   10    7    6    3       -0.0236578750
   10    7    6    6        0.0051143227
   10    8    6    4       -0.0027170730
   10    8    6    5       -0.0009813039
   10    9    6    4        0.0009813039
   10    9    6    5       -0.0027170730
   10   10    6    1        0.0115012217
   10   10    6    2       -0.0157966952
   10   10    6    3       -0.1313629391
   10   10    6    6        0.3523724247
   10    1    7    1        0.0122424834
   10    1    7    2        0.0102864374
   10    1    7    3       -0.0023068124
   10    1    7    6       -0.0039110661
   10    1    7    7       -0.0051173851
   10    2    7    1        0.0075831569
   10    2    7    2        0.0072282767
   10    2    7    3       -0.0228355629
   10    2    7    6        0.0054645418
   10    2    7    7        0.0067324789
   10    3    7    1       -0.0035133801
   10    3    7    2       -0.0016512475
   10    3    7    3        0.0223065701
   10    3    7    6       -0.0384548076
   10    3    7    7       -0.0636493789
   10    4    7    4        0.0014641674
   10    5    7    5        0.0014641674
   10    6    7    1       -0.0003865756
   10    6    7    2       -0.0040958298
   10    6    7    3       -0.0039762500
   10    6    7    6        0.0155918226
   10    6    7    7        0.0359933405
   10    7    7    1        0.0017990887
   10    7    7    2       -0.0045951134
   10    7    7    3       -0.0302439156
   10    7    7    6       -0.0003515860
   10    7    7    7       -0.0212400982
   10    8    7    4       -0.0025573983
   10    8    7    5       -0.0009236355
   10    9    7    4        0.0009236355
   10    9    7    5       -0.0025573983
   10   10    7    1        0.0080312266
   10   10    7    2        0.0119413640
   10   10    7    3       -0.0723360862
   10   10    7    6        0.0921103311
   10   10    7    7        0.3435312532
   10    1    8    4        0.0011315888
   10    1    8    5        0.0004086870
   10    1    8    8       -0.0063925028
   10    2    8    4       -0.0413724375
   10    2    8    5       -0.0149421581
   10    2    8    8        0.0367442811
   10    3    8    4        0.0604039857
   10    3    8    5        0.0218156328
   10    3    8    8       -0.0909034078
   10    4    8    1       -0.0094380052
   10    4    8    2       -0.0171214663
   10    4    8    3        0.0141865834
   10    4    8    6       -0.0011895612
   10    4    8    7       -0.0025570140
   10    5    8    1       -0.0034086502
   10    5    8    2       -0.0061836254
   10    5    8    3        0.0051236569
   10    5    8    6       -0.0004296245
   10    5    8    7       -0.0009234966
   10    6    8    4       -0.0201984586
   10    6    8    5       -0.0072949186
   10    6    8    8        0.0430886106
   10    7    8    4       -0.0259445374
   10    7    8    5       -0.0093701847
   10    7    8    8        0.0040264680
   10    8    8    1        0.0081901476
   10    8    8    2        0.0124694827
   10    8    8    3       -0.0061055003
   10    8    8    6        0.0020123824
   10    8    8    7        0.0023484923
   10   10    8    4       -0.1015406750
   10   10    8    5       -0.0366726476
   10   10    8    8        0.4508779585
   10    1    9    4       -0.0004086870
   10    1    9    5        0.0011315888
   10    1    9    9       -0.0063925028
   10    2    9    4        0.0149421581
   10    2    9    5       -0.0413724375
   10    2    9    9        0.0367442811
   10    3    9    4       -0.0218156328
   10    3    9    5        0.0604039857
   10    3    9    9       -0.0909034078
   10    4    9    1        0.0034086502
   10    4    9    2        0.0061836254
   10    4    9    3       -0.0051236569
   10    4    9    6        0.0004296245
   10    4    9    7        0.0009234966
   10    5    9    1       -0.0094380052
   10    5    9    2       -0.0171214663
   10    5    9    3        0.0141865834
   10    5    9    6       -0.0011895612
   10    5    9    7       -0.0025570140
   10    6    9    4        0.0072949186
   10    6    9    5       -0.0201984586
   10    6    9    9        0.0430886106
   10    7    9    4        0.0093701847
   10    7    9    5       -0.0259445374
   10    7    9    9        0.0040264680
   10    9    9    1        0.0081901476
   10    9    9    2        0.0124694827
   10    9    9    3       -0.0061055003
   10    9    9    6        0.0020123824
   10    9    9    7        0.0023484923
   10   10    9    4        0.0366726476
   10   10    9    5       -0.1015406750
   10   10    9    9        0.4508779585
   10    1   10    1        0.0448550325
   10    2   10    1        0.0120204966
   10    2   10    2        0.0500363885
   10    3   10    1       -0.0015334228
   10    3   10    2       -0.0459396231
   10    3   10    3        0.0964748055
   10    4   10    4        0.0235899002
   10    5   10    5        0.0235899002
   10    6   10    1       -0.0032083130
   10    6   10    2        0.0175417243
   10    6   10    3       -0.0417218834
   10    6   10    6        0.0288838782
   10    7   10    1        0.0011639232
   10    7   10    2        0.0174933185
   10    7   10    3       -0.0225085785
   10    7   10    6        0.0131975682
   10    7   10    7        0.0199638822
   10    8   10    4       -0.0077752660
   10    8   10    5       -0.0028081317
   10    8   10    8        0.0181427408
   10    9   10    4        0.0028081317
   10    9   10    5       -0.0077752660
   10    9   10    9        0.0181427408
   10   10   10    1        0.0084688334
   10   10   10    2        0.0369973289
   10   10   10    3       -0.0697347254
   10   10   10    6        0.0006703964
   10   10   10    7        0.0299365642
   10   10   10   10        0.6437052259
 end_two_electron_integrals
 fcidump
      5.3564341810     1   1   1   1
     -0.5319541413     2   1   1   1
      0.0841102918     2   1   2   1
      1.2610090552     2   2   1   1
     -0.0231318068     2   2   2   1
      0.8752329112     2   2   2   2
      0.0831295569     3   1   1   1
     -0.0124902926     3   1   2   1
      0.0067783052     3   1   2   2
      0.0269173938     3   1   3   1
     -0.0897825036     3   2   1   1
      0.0046033704     3   2   2   1
     -0.0252633712     3   2   2   2
      0.0273791862     3   2   3   1
      0.1431485415     3   2   3   2
      1.0049871401     3   3   1   1
     -0.0114557090     3   3   2   1
      0.7432286880     3   3   2   2
     -0.0024831553     3   3   3   1
     -0.0205534113     3   3   3   2
      0.7083403785     3   3   3   3
      0.0369999553     4   1   4   1
      0.0392533524     4   2   4   1
      0.1632943623     4   2   4   2
     -0.0057814258     4   3   4   1
     -0.0193102089     4   3   4   2
      0.0335233410     4   3   4   3
      1.2245696604     4   4   1   1
     -0.0159896282     4   4   2   1
      0.8499354751     4   4   2   2
      0.0027804663     4   4   3   1
     -0.0432484950     4   4   3   2
      0.6983398464     4   4   3   3
      0.8833605637     4   4   4   4
      0.0369999553     5   1   5   1
      0.0392533524     5   2   5   1
      0.1632943623     5   2   5   2
     -0.0057814258     5   3   5   1
     -0.0193102089     5   3   5   2
      0.0335233410     5   3   5   3
      0.0390818500     5   4   5   4
      1.2245696604     5   5   1   1
     -0.0159896282     5   5   2   1
      0.8499354751     5   5   2   2
      0.0027804663     5   5   3   1
     -0.0432484950     5   5   3   2
      0.6983398464     5   5   3   3
      0.8012207307     5   5   4   4
      0.8833605637     5   5   5   5
      0.1077036450     6   1   1   1
     -0.0184901784     6   1   2   1
      0.0023369606     6   1   2   2
     -0.0121776521     6   1   3   1
     -0.0172951809     6   1   3   2
      0.0045867959     6   1   3   3
      0.0022583586     6   1   4   4
      0.0022583586     6   1   5   5
      0.0127704819     6   1   6   1
     -0.1546527378     6   2   1   1
      0.0035908183     6   2   2   1
     -0.0884375090     6   2   2   2
     -0.0149807596     6   2   3   1
     -0.0499368842     6   2   3   2
     -0.0439672366     6   2   3   3
     -0.0808557758     6   2   4   4
     -0.0808557758     6   2   5   5
      0.0079915001     6   2   6   1
      0.0500259122     6   2   6   2
     -0.2858773934     6   3   1   1
      0.0040641228     6   3   2   1
     -0.1678543177     6   3   2   2
     -0.0008523393     6   3   3   1
      0.0367756918     6   3   3   2
     -0.1116589344     6   3   3   3
     -0.1554702771     6   3   4   4
     -0.1554702771     6   3   5   5
     -0.0003682041     6   3   6   1
      0.0312955711     6   3   6   2
      0.1007820333     6   3   6   3
     -0.0066330463     6   4   4   1
     -0.0210736896     6   4   4   2
     -0.0126018052     6   4   4   3
      0.0182071725     6   4   6   4
     -0.0066330463     6   5   5   1
     -0.0210736896     6   5   5   2
     -0.0126018052     6   5   5   3
      0.0182071725     6   5   6   5
      0.5262274258     6   6   1   1
     -0.0040893077     6   6   2   1
      0.4397620068     6   6   2   2
      0.0078865427     6   6   3   1
      0.0474162032     6   6   3   2
      0.4486399849     6   6   3   3
      0.4173436185     6   6   4   4
      0.4173436185     6   6   5   5
     -0.0032647201     6   6   6   1
     -0.0256511582     6   6   6   2
      0.0056631043     6   6   6   3
      0.4161717346     6   6   6   6
      0.0286141740     7   1   1   1
     -0.0052862174     7   1   2   1
     -0.0004644733     7   1   2   2
     -0.0119566012     7   1   3   1
     -0.0137107742     7   1   3   2
      0.0031564458     7   1   3   3
      0.0002777113     7   1   4   4
      0.0002777113     7   1   5   5
      0.0086123009     7   1   6   1
      0.0069093747     7   1   6   2
     -0.0001397851     7   1   6   3
     -0.0030305601     7   1   6   6
      0.0067051116     7   1   7   1
     -0.0415038746     7   2   1   1
      0.0008027656     7   2   2   1
     -0.0200561359     7   2   2   2
     -0.0099854513     7   2   3   1
     -0.0258574609     7   2   3   2
      0.0137882871     7   2   3   3
     -0.0224827783     7   2   4   4
     -0.0224827783     7   2   5   5
      0.0058488507     7   2   6   1
      0.0276485429     7   2   6   2
      0.0152682747     7   2   6   3
      0.0043810531     7   2   6   6
      0.0049082582     7   2   7   1
      0.0236266004     7   2   7   2
     -0.1940815143     7   3   1   1
      0.0044763704     7   3   2   1
     -0.0851735408     7   3   2   2
      0.0035285698     7   3   3   1
      0.0568764042     7   3   3   2
     -0.0295338340     7   3   3   3
     -0.0859585661     7   3   4   4
     -0.0859585661     7   3   5   5
     -0.0030970252     7   3   6   1
      0.0145154550     7   3   6   2
      0.0822714685     7   3   6   3
      0.0344261859     7   3   6   6
     -0.0022253953     7   3   7   1
      0.0184862328     7   3   7   2
      0.1005792909     7   3   7   3
     -0.0034673583     7   4   4   1
     -0.0177047080     7   4   4   2
     -0.0091256425     7   4   4   3
      0.0099329337     7   4   6   4
      0.0094322372     7   4   7   4
     -0.0034673583     7   5   5   1
     -0.0177047080     7   5   5   2
     -0.0091256425     7   5   5   3
      0.0099329337     7   5   6   5
      0.0094322372     7   5   7   5
      0.1961591506     7   6   1   1
     -0.0030792794     7   6   2   1
      0.1317430570     7   6   2   2
      0.0032763622     7   6   3   1
      0.0195869996     7   6   3   2
      0.1427491456     7   6   3   3
      0.1166107150     7   6   4   4
      0.1166107150     7   6   5   5
     -0.0009980969     7   6   6   1
     -0.0130287611     7   6   6   2
     -0.0070030533     7   6   6   3
      0.0832448074     7   6   6   6
     -0.0010492238     7   6   7   1
      0.0110881937     7   6   7   2
      0.0351294848     7   6   7   3
      0.0794124716     7   6   7   6
      0.4656892578     7   7   1   1
     -0.0023340413     7   7   2   1
      0.4240790365     7   7   2   2
      0.0049442073     7   7   3   1
      0.0699384984     7   7   3   2
      0.4814758478     7   7   3   3
      0.3965240289     7   7   4   4
      0.3965240289     7   7   5   5
     -0.0020333846     7   7   6   1
     -0.0087616728     7   7   6   2
      0.0508208260     7   7   6   3
      0.4424888551     7   7   6   6
     -0.0017904900     7   7   7   1
      0.0319087507     7   7   7   2
      0.1171089609     7   7   7   3
      0.1406183284     7   7   7   6
      0.5815415303     7   7   7   7
     -0.0313983465     8   1   4   1
     -0.0298309889     8   1   4   2
      0.0046592821     8   1   4   3
     -0.0113398941     8   1   5   1
     -0.0107738238     8   1   5   2
      0.0016827563     8   1   5   3
      0.0049279953     8   1   6   4
      0.0017798053     8   1   6   5
      0.0024061133     8   1   7   4
      0.0008689970     8   1   7   5
      0.0288389485     8   1   8   1
     -0.0171916680     8   2   4   1
     -0.0365594970     8   2   4   2
      0.0139032668     8   2   4   3
     -0.0062089796     8   2   5   1
     -0.0132039062     8   2   5   2
      0.0050213336     8   2   5   3
      0.0104842782     8   2   6   4
      0.0037865243     8   2   6   5
      0.0016388055     8   2   7   4
      0.0005918745     8   2   7   5
      0.0152234835     8   2   8   1
      0.0368177786     8   2   8   2
      0.0056711408     8   3   4   1
      0.0290145516     8   3   4   2
     -0.0022127565     8   3   4   3
      0.0020482013     8   3   5   1
      0.0104789576     8   3   5   2
     -0.0007991639     8   3   5   3
      0.0059367978     8   3   6   4
      0.0021441466     8   3   6   5
      0.0033337344     8   3   7   4
      0.0012040187     8   3   7   5
     -0.0047934179     8   3   8   1
      0.0055971218     8   3   8   2
      0.0397292098     8   3   8   3
     -0.3888186282     8   4   1   1
      0.0110832765     8   4   2   1
     -0.1607657380     8   4   2   2
      0.0006930621     8   4   3   1
      0.0347430514     8   4   3   2
     -0.1034562680     8   4   3   3
     -0.1745027806     8   4   4   4
     -0.0041936247     8   4   5   4
     -0.1514707603     8   4   5   5
     -0.0032483713     8   4   6   1
      0.0278783765     8   4   6   2
      0.0584057858     8   4   6   3
     -0.0279822988     8   4   6   6
     -0.0015319744     8   4   7   1
      0.0077659523     8   4   7   2
      0.0471356804     8   4   7   3
     -0.0225857356     8   4   7   6
     -0.0069611393     8   4   7   7
      0.1008102158     8   4   8   4
     -0.1404265685     8   5   1   1
      0.0040028599     8   5   2   1
     -0.0580624982     8   5   2   2
      0.0002503078     8   5   3   1
      0.0125478749     8   5   3   2
     -0.0373644873     8   5   3   3
[...]
 tce:restart_ignore_failure           logical[4]      Tue Jul 30 17:24:53 2019 
 tce:guess_lr_real                    logical[1]      Tue Jul 30 17:24:53 2019 
 basis:ao basis:tags info                 int[280]    Tue Jul 30 17:24:52 2019 
 tce:skip_t                           logical[1]      Tue Jul 30 17:24:53 2019 
 tce:hbard                                int[1]      Tue Jul 30 17:24:52 2019 
 tce:diagnt1                          logical[1]      Tue Jul 30 17:24:53 2019 
 geometry:geometry:zmt_ijkang_frz        logical[160]    Tue Jul 30 17:24:52 2019 
 tce:read_integrals                   logical[5]      Tue Jul 30 17:24:52 2019 
 tce:bnumfreq                             int[1]      Tue Jul 30 17:24:53 2019 
 tce:ccsdvar                             char[5]      Tue Jul 30 17:24:53 2019 
 tce:lineresp                         logical[1]      Tue Jul 30 17:24:53 2019 
 tce:save_l                           logical[4]      Tue Jul 30 17:24:53 2019 
 tce:ichopx                               int[1]      Tue Jul 30 17:24:52 2019 
 tce:nogamma                          logical[1]      Tue Jul 30 17:24:53 2019 
 scf:dipole                            double[3]      Tue Jul 30 17:24:53 2019 
 geometry:ngeom                           int[1]      Tue Jul 30 17:24:52 2019 
 tce:uact                                 int[1]      Tue Jul 30 17:24:52 2019 
 geometry:geometry:zmt_ijklto             int[640]    Tue Jul 30 17:24:52 2019 
 tce:save_tr                          logical[8]      Tue Jul 30 17:24:53 2019 
 geometry:geometry:zmt_ijklnb             int[640]    Tue Jul 30 17:24:52 2019 
 geometry:geometry:operators           double[2304]   Tue Jul 30 17:24:52 2019 
 tce:zlshiftl                          double[1]      Tue Jul 30 17:24:52 2019 
 tce:skip_tr                          logical[1]      Tue Jul 30 17:24:53 2019 
 basis:ao basis:star nr tags              int[1]      Tue Jul 30 17:24:52 2019 
 geometry:geometry:zmt_ijkang_val         double[160]    Tue Jul 30 17:24:52 2019 
 tce:anumfreq                             int[1]      Tue Jul 30 17:24:53 2019 
 geometry:geometry:zmt_ijklto_nam           char[160]    Tue Jul 30 17:24:52 2019 
 geometry:geometry:zmt_ijklop_frz        logical[160]    Tue Jul 30 17:24:52 2019 
 tce:save_t                           logical[4]      Tue Jul 30 17:24:53 2019 
 geometry:geometry:zmt_varsign         double[1]      Tue Jul 30 17:24:52 2019 
 geometry:geometry:recip vectors         double[3]      Tue Jul 30 17:24:52 2019 
 tce:model                               char[5]      Tue Jul 30 17:24:52 2019 
 tce:maxiter                              int[1]      Tue Jul 30 17:24:52 2019 
 tce:symmetry                         logical[1]      Tue Jul 30 17:24:52 2019 
 tce:save_x                           logical[4]      Tue Jul 30 17:24:53 2019 
 geometry:geometry:no. unique centers            int[1]      Tue Jul 30 17:24:52 2019 
 basis:ao basis:contraction info            int[90000]  Tue Jul 30 17:24:52 2019 
 tce:save_y                           logical[4]      Tue Jul 30 17:24:53 2019 
 geometry:geometry:zmt_izmat              int[3]      Tue Jul 30 17:24:52 2019 
 basis:ao basis:bs_nr_tags                int[1]      Tue Jul 30 17:24:52 2019 
 geometry:geometry:zmt_ijklop_val         double[160]    Tue Jul 30 17:24:52 2019 
 geometry:geometry:group number            int[1]      Tue Jul 30 17:24:52 2019 
 tce:nactv                                int[1]      Tue Jul 30 17:24:52 2019 
 tce:active_va                            int[1]      Tue Jul 30 17:24:52 2019 
 geometry:geometry:recip angles         double[3]      Tue Jul 30 17:24:52 2019 
 tce:active_vb                            int[1]      Tue Jul 30 17:24:52 2019 
 tce:active_oa                            int[1]      Tue Jul 30 17:24:52 2019 
 tce:active_ob                            int[1]      Tue Jul 30 17:24:52 2019 
 geometry:geometry:zmt_varname           char[2]      Tue Jul 30 17:24:52 2019 
 tce:thresh                            double[1]      Tue Jul 30 17:24:52 2019 
 geometry:geometry:system type            int[1]      Tue Jul 30 17:24:52 2019 
 tce:energy                            double[1]      Tue Jul 30 17:25:03 2019 
 tce:nopolar                          logical[1]      Tue Jul 30 17:24:53 2019 
 basis:ao basis:bs_stdname               char[16]     Tue Jul 30 17:24:52 2019 
 geometry:geometry:charges             double[2]      Tue Jul 30 17:24:52 2019 
 tce:respaxis                         logical[3]      Tue Jul 30 17:24:53 2019 
 tce:perturbative                        char[5]      Tue Jul 30 17:24:53 2019 
 scf:multiplicity                        char[8]      Tue Jul 30 17:24:52 2019 
 geometry:geometry:zmt_nizmat             int[1]      Tue Jul 30 17:24:52 2019 
 scf:output vectors                      char[24]     Tue Jul 30 17:24:53 2019 
 basis:ao basis:header                    int[7]      Tue Jul 30 17:24:52 2019 
 geometry:geometry:zmt_cvr_scaling         double[1]      Tue Jul 30 17:24:52 2019 
 geometry:geometry:tags                  char[4]      Tue Jul 30 17:24:52 2019 
 scf:input vectors                       char[24]     Tue Jul 30 17:24:53 2019 
 geometry:geometry:zmt_ijklnb_nam           char[160]    Tue Jul 30 17:24:52 2019 
 geometry:geometry:zmt_ijklto_frz        logical[160]    Tue Jul 30 17:24:52 2019 
 geometry:geometry:include_bqbq        logical[1]      Tue Jul 30 17:24:52 2019 
 tce:qducc                            logical[1]      Tue Jul 30 17:24:52 2019 
 geometry:geometry:zmt_ijklop             int[640]    Tue Jul 30 17:24:52 2019 
 geometry:geometry:group name            char[3]      Tue Jul 30 17:24:52 2019 
 tce:model2e                             char[6]      Tue Jul 30 17:24:52 2019 
 tce:eactmax                           double[1]      Tue Jul 30 17:24:52 2019 
 tce:zlshift2                          double[2]      Tue Jul 30 17:24:52 2019 
 tce:eactmin                           double[1]      Tue Jul 30 17:24:52 2019 
 basisprint:ao basis                  logical[1]      Tue Jul 30 17:24:52 2019 
 tce:oact                                 int[1]      Tue Jul 30 17:24:52 2019 
 tce:zlshift3                          double[2]      Tue Jul 30 17:24:52 2019 
 tce:densmat                          logical[1]      Tue Jul 30 17:24:52 2019 
 tce:nroots                               int[1]      Tue Jul 30 17:24:52 2019 
 geometry:geometry:zmt_ijklto_val         double[160]    Tue Jul 30 17:24:52 2019 
 geometry:geometry:zmt_maxtor             int[1]      Tue Jul 30 17:24:52 2019 
 scf:converged                        logical[1]      Tue Jul 30 17:24:53 2019 
 scf:nelec                                int[1]      Tue Jul 30 17:24:53 2019 
 tce:maxdiff                           double[1]      Tue Jul 30 17:24:53 2019 
 tce:guess_qr_real                    logical[1]      Tue Jul 30 17:24:53 2019 
 basis:ao basis:number of exps and coeffs            int[1]      Tue Jul 30 17:24:52 2019 
 geometry:names                          char[9]      Tue Jul 30 17:24:52 2019 
 geometry:geometry:masses              double[2]      Tue Jul 30 17:24:52 2019 
 tce:zlshift                           double[1]      Tue Jul 30 17:24:52 2019 
 tce:eoms                                 int[1]      Tue Jul 30 17:24:52 2019 
 tce:ampnorms                         logical[1]      Tue Jul 30 17:24:53 2019 
 scf:scftype                             char[4]      Tue Jul 30 17:24:53 2019 
 tce:diis2                                int[1]      Tue Jul 30 17:24:52 2019 
 tce:read_l                           logical[4]      Tue Jul 30 17:24:53 2019 
 tce:enegr                             double[1]      Tue Jul 30 17:25:03 2019 
 basis:ao basis:exps and coeffs         double[54]     Tue Jul 30 17:24:52 2019 
 tce:diis3                                int[1]      Tue Jul 30 17:24:52 2019 
 geometry:geometry:unique centers            int[2]      Tue Jul 30 17:24:52 2019 
 tce:read_lr                          logical[8]      Tue Jul 30 17:24:53 2019 
 geometry:geometry:zmt_ijbond_nam           char[160]    Tue Jul 30 17:24:52 2019 
 geometry:geometry:amatrix             double[9]      Tue Jul 30 17:24:52 2019 
 geometry:geometry:inv nuc expon         double[2]      Tue Jul 30 17:24:52 2019 
 geometry:geometry:zmt_ijklnb_val         double[160]    Tue Jul 30 17:24:52 2019 
 geometry:geometry:vel                 double[6]      Tue Jul 30 17:24:52 2019 
 geometry:geometry:zmt_ijklnb_frz        logical[160]    Tue Jul 30 17:24:52 2019 
 task:status                          logical[1]      Tue Jul 30 17:25:03 2019 
 geometry:geometry:direct volume         double[1]      Tue Jul 30 17:24:52 2019 
 tce:afreq                             double[1]      Tue Jul 30 17:24:53 2019 
 geometry:geometry:num_operators            int[1]      Tue Jul 30 17:24:52 2019 
 tce:read_t                           logical[4]      Tue Jul 30 17:24:53 2019 
 tce:save_interval                        int[1]      Tue Jul 30 17:24:53 2019 
 basis:nbasis                             int[1]      Tue Jul 30 17:24:52 2019 
 file_prefix                             char[15]     Tue Jul 30 17:24:52 2019 
 geometry:geometry:primitive_center           char[2]      Tue Jul 30 17:24:52 2019 
 task:energy                           double[1]      Tue Jul 30 17:25:03 2019 
 geometry:geometry:ncenter                int[1]      Tue Jul 30 17:24:52 2019 
 tce:idiskx                               int[1]      Tue Jul 30 17:24:52 2019 
 tce:damp2                             double[1]      Tue Jul 30 17:24:53 2019 
 geometry:geometry:zmt_nzvar              int[1]      Tue Jul 30 17:24:52 2019 
 tce:quadresp                         logical[1]      Tue Jul 30 17:24:53 2019 
 tce:damp3                             double[1]      Tue Jul 30 17:24:53 2019 
 scf:thresh                            double[1]      Tue Jul 30 17:24:52 2019 
 scf:energy                            double[1]      Tue Jul 30 17:24:53 2019 
 tce:read_tr                          logical[8]      Tue Jul 30 17:24:53 2019 
 tce:read_x                           logical[4]      Tue Jul 30 17:24:53 2019 
 basis:ao basis:assoc ecp name           char[4]      Tue Jul 30 17:24:52 2019 
 tce:read_y                           logical[4]      Tue Jul 30 17:24:53 2019 
 geometry:geometry:zmt_ijbond             int[320]    Tue Jul 30 17:24:52 2019 
 geometry:geometry:zmt_source            char[6]      Tue Jul 30 17:24:52 2019 
 geometry:geometry:setting number            int[1]      Tue Jul 30 17:24:52 2019 
 tce:act_excit_lvl                        int[1]      Tue Jul 30 17:24:52 2019 
 basis:ao basis:bs_tags                  char[4]      Tue Jul 30 17:24:52 2019 
 tce:i4im                                 int[1]      Tue Jul 30 17:24:52 2019 
 scf:tol2e                             double[1]      Tue Jul 30 17:24:52 2019 
 tce:diis                                 int[1]      Tue Jul 30 17:24:52 2019 
 tce:recompf                          logical[1]      Tue Jul 30 17:24:52 2019 
 rtdb:stored:state                    logical[3]      Tue Jul 30 17:24:52 2019 
 scf:alpha irreps                         int[19]     Tue Jul 30 17:24:53 2019 
 tce:module                              char[4]      Tue Jul 30 17:24:52 2019 
 geometry:geometry:zmt_ijbond_frz        logical[160]    Tue Jul 30 17:24:52 2019 
 tce:target                               int[1]      Tue Jul 30 17:24:52 2019 
 tce:left                             logical[1]      Tue Jul 30 17:24:52 2019 


 HDBM usage statistics
 ---------------------
 Reads         = 1940
 Inserts       = 1090
 Replaces      = 374
 Extracts      = 0
 Deletes       = 2166
 Reuses        = 16

 Memory allocs = 10072
 Memory frees  = 10072
 Memory max    = 1519711
 Memory in use = 0

 IO seeks      = 4081
 IO reads      = 2970
 IO writes     = 3289
 IO nread      = 3222156
 IO nwrite     = 2392636

 Summary of allocated global arrays
-----------------------------------
  No active global arrays



                         GA Statistics for process    0
                         ------------------------------

       create   destroy   get      put      acc     scatter   gather  read&inc
calls: 2092     2092     6579     2638     3423        0        0     4357     
number of processes/call 3.06e+14 4.98e+14 2.16e+13 0.00e+00 0.00e+00
bytes total:             1.86e+08 9.50e+06 4.47e+07 0.00e+00 0.00e+00 3.49e+04
bytes remote:            0.00e+00 0.00e+00 0.00e+00 0.00e+00 0.00e+00 0.00e+00
Max memory consumed for GA by this process: 1663800 bytes

MA_summarize_allocated_blocks: starting scan ...
MA_summarize_allocated_blocks: scan completed: 0 heap blocks, 0 stack blocks
MA usage statistics:

	allocation statistics:
					      heap	     stack
					      ----	     -----
	current number of blocks	         0	         0
	maximum number of blocks	        17	        40
	current total bytes		         0	         0
	maximum total bytes		   1060368	  55520424
	maximum total K-bytes		      1061	     55521
	maximum total M-bytes		         2	        56

	calls per routine:
		        39  MA_alloc_get
		        39  MA_allocate_heap
		       163  MA_chop_stack
		        39  MA_free_heap
		         0  MA_free_heap_piece
		     15450  MA_get_index
		         5  MA_get_mbase
		         0  MA_get_next_memhandle
		         0  MA_get_numalign
		        43  MA_get_pointer
		         1  MA_init
		         0  MA_initialized
		         0  MA_init_memhandle_iterator
		       214  MA_inquire_avail
		         1  MA_inquire_heap
		         0  MA_inquire_heap_check_stack
		         0  MA_inquire_heap_no_partition
		         1  MA_inquire_stack
		         0  MA_inquire_stack_check_heap
		         0  MA_inquire_stack_no_partition
		     15214  MA_pop_stack
		         1  MA_print_stats
		     15411  MA_push_get
		     15454  MA_push_stack
		         3  MA_set_auto_verify
		         1  MA_set_error_print
		         3  MA_set_hard_fail
		         1  MA_set_numalign
		      9253  MA_sizeof
		        22  MA_sizeof_overhead
		         1  MA_summarize_allocated_blocks
		         0  MA_trace
		     55889  MA_verify_allocator_stuff


                                     CITATION
                                     --------
                Please cite the following reference when publishing
                           results obtained with NWChem:

                 M. Valiev, E.J. Bylaska, N. Govind, K. Kowalski,
              T.P. Straatsma, H.J.J. van Dam, D. Wang, J. Nieplocha,
                        E. Apra, T.L. Windus, W.A. de Jong
                 "NWChem: a comprehensive and scalable open-source
                  solution for large scale molecular simulations"
                      Comput. Phys. Commun. 181, 1477 (2010)
                           doi:10.1016/j.cpc.2010.04.018

                                      AUTHORS
                                      -------
          E. Apra, E. J. Bylaska, W. A. de Jong, N. Govind, K. Kowalski,
       T. P. Straatsma, M. Valiev, H. J. J. van Dam, D. Wang, T. L. Windus,
        J. Hammond, J. Autschbach, K. Bhaskaran-Nair, J. Brabec, K. Lopata,
    S. A. Fischer, S. Krishnamoorthy, M. Jacquelin, W. Ma, M. Klemm, O. Villa,
      Y. Chen, V. Anisimov, F. Aquino, S. Hirata, M. T. Hackler, V. Konjkov,
            D. Mejia-Rodriguez, T. Risthaus, M. Malagoli, A. Marenich,
   A. Otero-de-la-Roza, J. Mullin, P. Nichols, R. Peverati, J. Pittner, Y. Zhao,
        P.-D. Fan, A. Fonari, M. J. Williamson, R. J. Harrison, J. R. Rehr,
      M. Dupuis, D. Silverstein, D. M. A. Smith, J. Nieplocha, V. Tipparaju,
    M. Krishnan, B. E. Van Kuiken, A. Vazquez-Mayagoitia, L. Jensen, M. Swart,
      Q. Wu, T. Van Voorhis, A. A. Auer, M. Nooijen, L. D. Crosby, E. Brown,
      G. Cisneros, G. I. Fann, H. Fruchtl, J. Garza, K. Hirao, R. A. Kendall,
      J. A. Nichols, K. Tsemekhman, K. Wolinski, J. Anchell, D. E. Bernholdt,
      P. Borowski, T. Clark, D. Clerc, H. Dachsel, M. J. O. Deegan, K. Dyall,
    D. Elwood, E. Glendening, M. Gutowski, A. C. Hess, J. Jaffe, B. G. Johnson,
     J. Ju, R. Kobayashi, R. Kutteh, Z. Lin, R. Littlefield, X. Long, B. Meng,
      T. Nakajima, S. Niu, L. Pollack, M. Rosing, K. Glaesemann, G. Sandrone,
      M. Stave, H. Taylor, G. Thomas, J. H. van Lenthe, A. T. Wong, Z. Zhang.

                                    REFERENCES
                                    ----------

          Where appropriate, please cite the following reference(s) 
          when publishing results obtained with NWChem:


     1. D. E. Bernholdt, E. Apra, H. A. Fruchtl, M.F. Guest, R. J. Harrison, 
        R. A. Kendall, R. A. Kutteh, X. Long, J. B. Nicholas, J. A. Nichols, 
        H. L. Taylor, A. T. Wong, G. I. Fann, R. J. Littlefield and
        J. Nieplocha,
        "Parallel Computational Chemistry Made Easier: 
        The Development of NWChem,"
        Int. J. Quantum Chem. Symposium  29, 475-483 (1995).


     2. M. F. Guest, E. Apra, D. E. Bernholdt, H. A. Fruchtl, R. J. Harrison, 
        R. A. Kendall, R. A. Kutteh, X. Long, J. B. Nicholas, J. A. Nichols, 
        H. L. Taylor, A. T. Wong, G. I. Fann, R. J. Littlefield and
        J. Nieplocha,
        "High Performance Computational Chemistry: NWChem and Fully Distributed
        Parallel Applications", in Advances in Parallel Computing, 10, High
        Performance Computing: Technology, Methods, and Applications, Eds. 
        J. Dongarra, L. Gradinetti, G. Joubert, and J. Kowalik, 
        (Elsevier Science B. V. pp. 395-427, 1995).


     3. M. F. Guest, E. Apra, D. E. Bernholdt, H. A. Fruchtl, R. J. Harrison, 
        R. A. Kendall, R. A. Kutteh, J. B. Nicholas, J. A. Nichols, M. S. Stave,
        A. T. Wong, R. J. Littlefield and J. Nieplocha, "High Performance 
        Computational Chemistry: Towards Fully Distributed Parallel Algorithms",
        in High Performance Computing: Symposium 1995, Grand Challenges in 
        Computer Simulation, Adrian M. Tentner, Editor, Proceedings of the 1995 
        Simulation Multiconference, April 9-13, 1995, Phoenix, Arizona, 
        Simulation Councils, Inc., The Society for Computer Simulation, 
        San Diego, CA, 1995. pp. 511-521.


     4. M. F. Guest, E. Apra, D. E. Bernholdt, H. A. Fruchtl, R. J. Harrison,
        R. A. Kendall, R. A. Kutteh, X. Long, J. B. Nicholas, J. A. Nichols, 
        H. L. Taylor, A. T. Wong, G. I. Fann, R. J. Littlefield and
        J. Nieplocha,
        "Advances in Parallel Distributed Data Software; Computational Chemistry
        and NWChem", in Applied Parallel Computing.  Computations in Physics,
        Chemistry, and Engineering Science, Eds. J. Wasnieski, J. Dongarra, and 
        K. Madsen, Lecture Notes in Computer Science, 1041,
        (Springer-Verlag, Berlin, 278-294, 1996).


     5. M. F. Guest, E. Apra, D. E. Bernholdt, H. A. Fruchtl, R. J. Harrison,
        R. A. Kendall, R. A. Kutteh, X. Long, J. B. Nicholas, J. A. Nichols, 
        H. L. Taylor, A. T. Wong, G. I. Fann, R. J. Littlefield and
        J. Nieplocha, 
        "High-Performance Computing in Chemistry; NWChem", Future 
        Generations Computer Systems  12(4), 273, (1996).


     6. R. A. Kendall, E. Apra, D. E. Bernholdt, E. J. Bylaska, M. Dupuis,
        G. I. Fann, R. J. Harrison, J. Ju, J. A. Nichols, J. Nieplocha,
        T. P. Straatsma, T. L. Windus, A. T. Wong,
        Computer Phys. Comm. 128, 260 (2000).


     7. T. P. Straatsma and V. Helms, in Molecular Dynamics on Parallel
        Computers2000, R. Esser et al. editors, p 70.


     8.  T. P. Straatsma, M. Philippopoulos and J. A. McCammon,
         Computer Phys. Comm. 128, 377 (2000).


     9.  M. Valiev, E. J. Bylaska, A. Gramada, and J. H. Weare,
         Reviews in Modern Quantum Chemistry, pages 1684-1734
         (World Scientific, Singapore, 2002).


    10.  E. J. Bylaska, M. Valiev, R. Kawai, and J. H. Weare,
         Computer Phys. Comm. 143, 11 (2002).


    11.  M. Valiev and J. H. Weare,
         J. Phys. Chem. A, 103, 10588 (1999).



 Total times  cpu:       11.0s     wall:       11.0s
