 argument  1 = Li2-4_ORBITALS-ccpVTZ-2_1384.nw
  NWChem w/ OpenMP: maximum threads =    1



============================== echo of input deck ==============================
title "Li2-REMOVE"
echo
start Li2-REMOVE

memory total 24 gb

geometry  units angstrom
symmetry c1
Li  0    0    0
Li  0    0    2.1384
end

basis spherical
   * library cc-pvtz
end

scf
thresh 1.0e-10
tol2e 1.0e-10
rhf
singlet
maxiter 200
end

tce
   ccsd
   maxiter 200
   thresh 1.e-6
   2eorb
   2emet 13
   tilesize 5
   freeze virtual 56
end

#set tce:qducc T
#set tce:nactv 7
set tce:printtol 0.001

task tce energy

================================================================================


                                         
                                         


              Northwest Computational Chemistry Package (NWChem) 6.8
              ------------------------------------------------------


                    Environmental Molecular Sciences Laboratory
                       Pacific Northwest National Laboratory
                                Richland, WA 99352

                              Copyright (c) 1994-2018
                       Pacific Northwest National Laboratory
                            Battelle Memorial Institute

             NWChem is an open-source computational chemistry package
                        distributed under the terms of the
                      Educational Community License (ECL) 2.0
             A copy of the license is included with this distribution
                              in the LICENSE.TXT file

                                  ACKNOWLEDGMENT
                                  --------------

            This software and its documentation were developed at the
            EMSL at Pacific Northwest National Laboratory, a multiprogram
            national laboratory, operated for the U.S. Department of Energy
            by Battelle under Contract Number DE-AC05-76RL01830. Support
            for this work was provided by the Department of Energy Office
            of Biological and Environmental Research, Office of Basic
            Energy Sciences, and the Office of Advanced Scientific Computing.


           Job information
           ---------------

    hostname        = WE35263ubuntu
    program         = /home/baum612/code/NWChem/nwchem/bin/LINUX64/nwchem
    date            = Wed Apr 10 15:50:46 2019

    compiled        = Thu_Apr_04_14:53:19_2019
    source          = /home/baum612/code/NWChem/nwchem
    nwchem branch   = Development
    nwchem revision = nwchem_on_git-845-ga8f432451
    ga revision     = 5.6.5
    use scalapack   = F
    input           = Li2-4_ORBITALS-ccpVTZ-2_1384.nw
    prefix          = Li2-REMOVE.
    data base       = ./Li2-REMOVE.db
    status          = startup
    nproc           =        1
    time left       =     -1s



           Memory information
           ------------------

    heap     =  805306368 doubles =   6144.0 Mbytes
    stack    =  805306365 doubles =   6144.0 Mbytes
    global   = 1610612736 doubles =  12288.0 Mbytes (distinct from heap & stack)
    total    = 3221225469 doubles =  24576.0 Mbytes
    verify   = yes
    hardfail = no 


           Directory information
           ---------------------

  0 permanent = .
  0 scratch   = .




                                NWChem Input Module
                                -------------------


                                    Li2-REMOVE
                                    ----------

 Scaling coordinates for geometry "geometry" by  1.889725989
 (inverse scale =  0.529177249)

 Turning off AUTOSYM since
 SYMMETRY directive was detected!


          ------
          auto-z
          ------
  no constraints, skipping    0.0000000000000000     
  no constraints, skipping    0.0000000000000000     


                             Geometry "geometry" -> ""
                             -------------------------

 Output coordinates in angstroms (scale by  1.889725989 to convert to a.u.)

  No.       Tag          Charge          X              Y              Z
 ---- ---------------- ---------- -------------- -------------- --------------
    1 Li                   3.0000     0.00000000     0.00000000    -1.06920000
    2 Li                   3.0000     0.00000000     0.00000000     1.06920000

      Atomic Mass 
      ----------- 

      Li                 7.016000


 Effective nuclear repulsion energy (a.u.)       2.2271769739

            Nuclear Dipole moment (a.u.) 
            ----------------------------
        X                 Y               Z
 ---------------- ---------------- ----------------
     0.0000000000     0.0000000000     0.0000000000



                                Z-matrix (autoz)
                                -------- 

 Units are Angstrom for bonds and degrees for angles

      Type          Name      I     J     K     L     M      Value
      ----------- --------  ----- ----- ----- ----- ----- ----------
    1 Stretch                  1     2                       2.13840


            XYZ format geometry
            -------------------
     2
 geometry
 Li                    0.00000000     0.00000000    -1.06920000
 Li                    0.00000000     0.00000000     1.06920000

 ==============================================================================
                                internuclear distances
 ------------------------------------------------------------------------------
       center one      |      center two      | atomic units |  angstroms
 ------------------------------------------------------------------------------
    2 Li               |   1 Li               |     4.04099  |     2.13840
 ------------------------------------------------------------------------------
                         number of included internuclear distances:          1
 ==============================================================================





 Summary of "ao basis" -> "" (spherical)
 ------------------------------------------------------------------------------
       Tag                 Description            Shells   Functions and Types
 ---------------- ------------------------------  ------  ---------------------
 *                          cc-pvtz                   on all atoms 


                      Basis "ao basis" -> "ao basis" (spherical)
                      -----
  Li (Lithium)
  ------------
            Exponent  Coefficients 
       -------------- ---------------------------------------------------------
  1 S  5.98800000E+03  0.000133
  1 S  8.98900000E+02  0.001025
  1 S  2.05900000E+02  0.005272
  1 S  5.92400000E+01  0.020929
  1 S  1.98700000E+01  0.066340
  1 S  7.40600000E+00  0.165775
  1 S  2.93000000E+00  0.315038
  1 S  1.18900000E+00  0.393523
  1 S  4.79800000E-01  0.190870

  2 S  5.98800000E+03 -0.000021
  2 S  8.98900000E+02 -0.000161
  2 S  2.05900000E+02 -0.000820
  2 S  5.92400000E+01 -0.003326
  2 S  1.98700000E+01 -0.010519
  2 S  7.40600000E+00 -0.028097
  2 S  2.93000000E+00 -0.055936
  2 S  1.18900000E+00 -0.099237
  2 S  4.79800000E-01 -0.112189

  3 S  7.50900000E-02  1.000000

  4 S  2.83200000E-02  1.000000

  5 P  3.26600000E+00  0.008630
  5 P  6.51100000E-01  0.047538
  5 P  1.69600000E-01  0.209772

  6 P  5.57800000E-02  1.000000

  7 P  2.05000000E-02  1.000000

  8 D  1.87400000E-01  1.000000

  9 D  8.01000000E-02  1.000000

 10 F  1.82900000E-01  1.000000



 Summary of "ao basis" -> "ao basis" (spherical)
 ------------------------------------------------------------------------------
       Tag                 Description            Shells   Functions and Types
 ---------------- ------------------------------  ------  ---------------------
 Li                         cc-pvtz                 10       30   4s3p2d1f


                                 NWChem SCF Module
                                 -----------------


                                    Li2-REMOVE



  ao basis        = "ao basis"
  functions       =    60
  atoms           =     2
  closed shells   =     3
  open shells     =     0
  charge          =   0.00
  wavefunction    = RHF 
  input vectors   = atomic
  output vectors  = ./Li2-REMOVE.movecs
  use symmetry    = F
  symmetry adapt  = F


 Summary of "ao basis" -> "ao basis" (spherical)
 ------------------------------------------------------------------------------
       Tag                 Description            Shells   Functions and Types
 ---------------- ------------------------------  ------  ---------------------
 Li                         cc-pvtz                 10       30   4s3p2d1f



 Forming initial guess at       0.1s


      Superposition of Atomic Density Guess
      -------------------------------------

 Sum of atomic energies:         -14.86535760

      Non-variational initial energy
      ------------------------------

 Total energy =     -14.839509
 1-e energy   =     -23.746339
 2-e energy   =       6.679653
 HOMO         =      -0.180329
 LUMO         =      -0.010320


 Starting SCF solution at       0.2s



 ----------------------------------------------
         Quadratically convergent ROHF

 Convergence threshold     :          1.000E-10
 Maximum no. of iterations :          200
 Final Fock-matrix accuracy:          1.000E-10
 ----------------------------------------------


 Integral file          = ./Li2-REMOVE.aoints.0
 Record size in doubles =    65536    No. of integs per rec  =    43688
 Max. records in memory =       54    Max. records in file   =  1545088
 No. of bits per label  =        8    No. of bits per value  =       64


 #quartets = 2.216D+04 #integrals = 3.711D+05 #direct =  0.0% #cached =100.0%


              iter       energy          gnorm     gmax       time
             ----- ------------------- --------- --------- --------
                 1      -14.8523901807  7.63D-02  3.66D-02      0.4
                 2      -14.8542986409  3.06D-03  1.73D-03      0.4
                 3      -14.8543032022  4.76D-06  3.40D-06      0.4
                 4      -14.8543032022  8.62D-12  5.62D-12      0.5


       Final RHF  results 
       ------------------ 

         Total SCF energy =    -14.854303202202
      One-electron energy =    -23.960243367783
      Two-electron energy =      6.878763191677
 Nuclear repulsion energy =      2.227176973904

        Time for solution =      0.3s


             Final eigenvalues
             -----------------

              1      
    1   -2.4560
    2   -2.4531
    3   -0.1923
    4    0.0110
    5    0.0245
    6    0.0245
    7    0.0411
    8    0.0576
    9    0.0576
   10    0.0667
   11    0.1080
   12    0.1084
   13    0.1084

                       ROHF Final Molecular Orbital Analysis
                       -------------------------------------

 Vector    2  Occ=2.000000D+00  E=-2.453077D+00
              MO Center= -2.9D-17, -2.8D-17, -3.5D-12, r^2= 1.3D+00
   Bfn.  Coefficient  Atom+Function         Bfn.  Coefficient  Atom+Function  
  ----- ------------  ---------------      ----- ------------  ---------------
     1      0.705516  1 Li s                 31     -0.705516  2 Li s          

 Vector    3  Occ=2.000000D+00  E=-1.922693D-01
              MO Center=  4.4D-15,  1.2D-16, -4.2D-14, r^2= 4.8D+00
   Bfn.  Coefficient  Atom+Function         Bfn.  Coefficient  Atom+Function  
  ----- ------------  ---------------      ----- ------------  ---------------
     3      0.306824  1 Li s                 33      0.306824  2 Li s          
     4      0.257983  1 Li s                 34      0.257983  2 Li s          
     2      0.219242  1 Li s                 32      0.219242  2 Li s          

 Vector    4  Occ=0.000000D+00  E= 1.101678D-02
              MO Center= -5.8D-15,  1.5D-16,  1.1D-14, r^2= 2.0D+01
   Bfn.  Coefficient  Atom+Function         Bfn.  Coefficient  Atom+Function  
  ----- ------------  ---------------      ----- ------------  ---------------
     4      2.075473  1 Li s                 34     -2.075473  2 Li s          
    13      0.986633  1 Li pz                43      0.986633  2 Li pz         
    10      0.435168  1 Li pz                40      0.435168  2 Li pz         

 Vector    5  Occ=0.000000D+00  E= 2.447956D-02
              MO Center= -1.5D-14, -2.8D-14,  3.0D-13, r^2= 1.5D+01
   Bfn.  Coefficient  Atom+Function         Bfn.  Coefficient  Atom+Function  
  ----- ------------  ---------------      ----- ------------  ---------------
    12      0.415712  1 Li py                42      0.415712  2 Li py         
    11      0.209551  1 Li px                41      0.209551  2 Li px         

 Vector    6  Occ=0.000000D+00  E= 2.447956D-02
              MO Center= -1.5D-14,  6.8D-15,  2.7D-13, r^2= 1.5D+01
   Bfn.  Coefficient  Atom+Function         Bfn.  Coefficient  Atom+Function  
  ----- ------------  ---------------      ----- ------------  ---------------
    11      0.415712  1 Li px                41      0.415712  2 Li px         
    12     -0.209551  1 Li py                42     -0.209551  2 Li py         

 Vector    7  Occ=0.000000D+00  E= 4.105718D-02
              MO Center=  1.4D-14,  1.9D-14, -1.8D-12, r^2= 2.5D+01
   Bfn.  Coefficient  Atom+Function         Bfn.  Coefficient  Atom+Function  
  ----- ------------  ---------------      ----- ------------  ---------------
    13      1.234527  1 Li pz                43     -1.234527  2 Li pz         
     4     -0.749945  1 Li s                 34     -0.749945  2 Li s          
     3      0.382089  1 Li s                 33      0.382089  2 Li s          
    10     -0.167829  1 Li pz                40      0.167829  2 Li pz         

 Vector    8  Occ=0.000000D+00  E= 5.761921D-02
              MO Center=  1.1D-14, -1.3D-14, -1.5D-13, r^2= 2.7D+01
   Bfn.  Coefficient  Atom+Function         Bfn.  Coefficient  Atom+Function  
  ----- ------------  ---------------      ----- ------------  ---------------
    12      1.561331  1 Li py                42     -1.561331  2 Li py         
    11     -1.362670  1 Li px                41      1.362670  2 Li px         
     9     -0.387252  1 Li py                39      0.387252  2 Li py         
     8      0.337979  1 Li px                38     -0.337979  2 Li px         

 Vector    9  Occ=0.000000D+00  E= 5.761921D-02
              MO Center=  6.9D-15,  6.6D-15, -1.7D-13, r^2= 2.7D+01
   Bfn.  Coefficient  Atom+Function         Bfn.  Coefficient  Atom+Function  
  ----- ------------  ---------------      ----- ------------  ---------------
    11      1.561331  1 Li px                41     -1.561331  2 Li px         
    12      1.362670  1 Li py                42     -1.362670  2 Li py         
     8     -0.387252  1 Li px                38      0.387252  2 Li px         
     9     -0.337979  1 Li py                39      0.337979  2 Li py         

 Vector   10  Occ=0.000000D+00  E= 6.670381D-02
              MO Center= -1.7D-14,  7.2D-15,  2.9D-12, r^2= 3.0D+01
   Bfn.  Coefficient  Atom+Function         Bfn.  Coefficient  Atom+Function  
  ----- ------------  ---------------      ----- ------------  ---------------
     4      9.668487  1 Li s                 34     -9.668487  2 Li s          
    13      2.552581  1 Li pz                43      2.552581  2 Li pz         
    10      1.526774  1 Li pz                40      1.526774  2 Li pz         
     3      0.816059  1 Li s                 33     -0.816059  2 Li s          
    21      0.359950  1 Li d  0              51     -0.359950  2 Li d  0       

 Vector   11  Occ=0.000000D+00  E= 1.080340D-01
              MO Center= -1.9D-13,  2.3D-13, -1.3D-12, r^2= 1.7D+01
   Bfn.  Coefficient  Atom+Function         Bfn.  Coefficient  Atom+Function  
  ----- ------------  ---------------      ----- ------------  ---------------
     3      1.257749  1 Li s                 33      1.257749  2 Li s          
    13     -1.193982  1 Li pz                43      1.193982  2 Li pz         
     4     -0.764025  1 Li s                 34     -0.764025  2 Li s          
    21     -0.420350  1 Li d  0              51     -0.420350  2 Li d  0       
     7      0.152311  1 Li pz                37     -0.152311  2 Li pz         

 Vector   12  Occ=0.000000D+00  E= 1.084103D-01
              MO Center=  2.4D-13, -1.0D-13,  1.8D-13, r^2= 1.6D+01
   Bfn.  Coefficient  Atom+Function         Bfn.  Coefficient  Atom+Function  
  ----- ------------  ---------------      ----- ------------  ---------------
     8      0.728311  1 Li px                38      0.728311  2 Li px         
    11     -0.605593  1 Li px                41     -0.605593  2 Li px         
     9     -0.310103  1 Li py                39     -0.310103  2 Li py         
    12      0.257851  1 Li py                42      0.257851  2 Li py         

 Vector   13  Occ=0.000000D+00  E= 1.084103D-01
              MO Center= -5.2D-14, -1.2D-13,  1.8D-13, r^2= 1.6D+01
   Bfn.  Coefficient  Atom+Function         Bfn.  Coefficient  Atom+Function  
  ----- ------------  ---------------      ----- ------------  ---------------
     9      0.728311  1 Li py                39      0.728311  2 Li py         
    12     -0.605593  1 Li py                42     -0.605593  2 Li py         
     8      0.310103  1 Li px                38      0.310103  2 Li px         
    11     -0.257851  1 Li px                41     -0.257851  2 Li px         

 Vector   14  Occ=0.000000D+00  E= 1.438055D-01
              MO Center= -1.1D-15, -9.4D-16,  9.7D-12, r^2= 1.3D+01
   Bfn.  Coefficient  Atom+Function         Bfn.  Coefficient  Atom+Function  
  ----- ------------  ---------------      ----- ------------  ---------------
     3      1.544058  1 Li s                 33      1.544058  2 Li s          
    10     -1.223952  1 Li pz                40      1.223952  2 Li pz         
     4     -1.101195  1 Li s                 34     -1.101195  2 Li s          
    13      0.619298  1 Li pz                43     -0.619298  2 Li pz         
    21     -0.295593  1 Li d  0              51     -0.295593  2 Li d  0       

 Vector   15  Occ=0.000000D+00  E= 1.626792D-01
              MO Center= -1.1D-15, -8.0D-16, -1.0D-11, r^2= 2.0D+01
   Bfn.  Coefficient  Atom+Function         Bfn.  Coefficient  Atom+Function  
  ----- ------------  ---------------      ----- ------------  ---------------
     4     15.783201  1 Li s                 34    -15.783201  2 Li s          
    10      5.841123  1 Li pz                40      5.841123  2 Li pz         
     3      3.076258  1 Li s                 33     -3.076258  2 Li s          
    13      2.439834  1 Li pz                43      2.439834  2 Li pz         
    21      0.801587  1 Li d  0              51     -0.801587  2 Li d  0       

 Vector   16  Occ=0.000000D+00  E= 1.705342D-01
              MO Center= -4.9D-16,  5.7D-16, -2.3D-13, r^2= 1.4D+01
   Bfn.  Coefficient  Atom+Function         Bfn.  Coefficient  Atom+Function  
  ----- ------------  ---------------      ----- ------------  ---------------
     9      1.869918  1 Li py                39     -1.869918  2 Li py         
    12     -1.433034  1 Li py                42      1.433034  2 Li py         
     8      0.688346  1 Li px                38     -0.688346  2 Li px         
    11     -0.527522  1 Li px                41      0.527522  2 Li px         
    20      0.246491  1 Li d -1              50      0.246491  2 Li d -1       

 Vector   17  Occ=0.000000D+00  E= 1.705342D-01
              MO Center=  8.9D-16,  1.3D-16, -2.3D-13, r^2= 1.4D+01
   Bfn.  Coefficient  Atom+Function         Bfn.  Coefficient  Atom+Function  
  ----- ------------  ---------------      ----- ------------  ---------------
     8      1.869918  1 Li px                38     -1.869918  2 Li px         
    11     -1.433034  1 Li px                41      1.433034  2 Li px         
     9     -0.688346  1 Li py                39      0.688346  2 Li py         
    12      0.527522  1 Li py                42     -0.527522  2 Li py         
    22     -0.246491  1 Li d  1              52     -0.246491  2 Li d  1       

 Vector   18  Occ=0.000000D+00  E= 2.163742D-01
              MO Center=  9.1D-16, -2.2D-16,  1.2D-13, r^2= 7.7D+00
   Bfn.  Coefficient  Atom+Function         Bfn.  Coefficient  Atom+Function  
  ----- ------------  ---------------      ----- ------------  ---------------
    23      0.602776  1 Li d  2              53      0.602776  2 Li d  2       
    19      0.285865  1 Li d -2              49      0.285865  2 Li d -2       

 Vector   19  Occ=0.000000D+00  E= 2.163742D-01
              MO Center=  6.1D-16,  1.0D-15,  1.2D-13, r^2= 7.7D+00
   Bfn.  Coefficient  Atom+Function         Bfn.  Coefficient  Atom+Function  
  ----- ------------  ---------------      ----- ------------  ---------------
    19      0.602776  1 Li d -2              49      0.602776  2 Li d -2       
    23     -0.285865  1 Li d  2              53     -0.285865  2 Li d  2       

 Vector   20  Occ=0.000000D+00  E= 2.612305D-01
              MO Center= -8.3D-16, -5.8D-17,  1.2D-12, r^2= 1.2D+01
   Bfn.  Coefficient  Atom+Function         Bfn.  Coefficient  Atom+Function  
  ----- ------------  ---------------      ----- ------------  ---------------
     4      4.333620  1 Li s                 34     -4.333620  2 Li s          
     3     -1.105264  1 Li s                 13      1.106632  1 Li pz         
    33      1.105264  2 Li s                 43      1.106632  2 Li pz         
    21      0.799315  1 Li d  0              51     -0.799315  2 Li d  0       
     2     -0.308572  1 Li s                 32      0.308572  2 Li s          

 Vector   21  Occ=0.000000D+00  E= 2.701066D-01
              MO Center=  6.5D-17,  5.0D-16, -1.2D-13, r^2= 9.8D+00
   Bfn.  Coefficient  Atom+Function         Bfn.  Coefficient  Atom+Function  
  ----- ------------  ---------------      ----- ------------  ---------------
    22      0.697766  1 Li d  1              52     -0.697766  2 Li d  1       
    20     -0.520990  1 Li d -1              50      0.520990  2 Li d -1       
     8      0.370438  1 Li px                38      0.370438  2 Li px         
     9      0.276589  1 Li py                39      0.276589  2 Li py         
    11     -0.164903  1 Li px                41     -0.164903  2 Li px         

 Vector   22  Occ=0.000000D+00  E= 2.701066D-01
              MO Center=  2.6D-15, -4.2D-15, -1.2D-13, r^2= 9.8D+00
   Bfn.  Coefficient  Atom+Function         Bfn.  Coefficient  Atom+Function  
  ----- ------------  ---------------      ----- ------------  ---------------
    20      0.697766  1 Li d -1              50     -0.697766  2 Li d -1       
    22      0.520990  1 Li d  1              52     -0.520990  2 Li d  1       
     9     -0.370438  1 Li py                39     -0.370438  2 Li py         
     8      0.276589  1 Li px                38      0.276589  2 Li px         
    12      0.164903  1 Li py                42      0.164903  2 Li py         

 Vector   23  Occ=0.000000D+00  E= 2.891064D-01
              MO Center= -2.9D-15, -7.7D-15, -1.1D-13, r^2= 9.5D+00
   Bfn.  Coefficient  Atom+Function         Bfn.  Coefficient  Atom+Function  
  ----- ------------  ---------------      ----- ------------  ---------------
    19      1.190684  1 Li d -2              49     -1.190684  2 Li d -2       
    14     -0.195270  1 Li d -2              44      0.195270  2 Li d -2       
    23     -0.168790  1 Li d  2              53      0.168790  2 Li d  2       

 Vector   24  Occ=0.000000D+00  E= 2.891064D-01
              MO Center= -3.1D-15, -5.2D-16, -1.1D-13, r^2= 9.5D+00
   Bfn.  Coefficient  Atom+Function         Bfn.  Coefficient  Atom+Function  
  ----- ------------  ---------------      ----- ------------  ---------------
    23      1.190684  1 Li d  2              53     -1.190684  2 Li d  2       
    18     -0.195270  1 Li d  2              48      0.195270  2 Li d  2       
    19      0.168790  1 Li d -2              49     -0.168790  2 Li d -2       

 Vector   25  Occ=0.000000D+00  E= 3.227108D-01
              MO Center= -1.0D-15, -1.4D-15, -1.0D-12, r^2= 1.0D+01
   Bfn.  Coefficient  Atom+Function         Bfn.  Coefficient  Atom+Function  
  ----- ------------  ---------------      ----- ------------  ---------------
     3      1.463866  1 Li s                 33      1.463866  2 Li s          
    21     -1.437702  1 Li d  0              51     -1.437702  2 Li d  0       
     4     -0.716331  1 Li s                 13     -0.717859  1 Li pz         
    34     -0.716331  2 Li s                 43      0.717859  2 Li pz         
    10     -0.496350  1 Li pz                40      0.496350  2 Li pz         

 Vector   26  Occ=0.000000D+00  E= 3.623822D-01
              MO Center=  4.8D-15,  2.2D-15,  6.6D-14, r^2= 1.2D+01
   Bfn.  Coefficient  Atom+Function         Bfn.  Coefficient  Atom+Function  
  ----- ------------  ---------------      ----- ------------  ---------------
     9      4.842112  1 Li py                39     -4.842112  2 Li py         
    20      3.045161  1 Li d -1              50      3.045161  2 Li d -1       
    12     -0.811140  1 Li py                42      0.811140  2 Li py         
     8      0.392562  1 Li px                38     -0.392562  2 Li px         
    22     -0.246879  1 Li d  1              52     -0.246879  2 Li d  1       

 Vector   27  Occ=0.000000D+00  E= 3.623822D-01
              MO Center=  3.4D-15,  5.7D-15,  4.0D-14, r^2= 1.2D+01
   Bfn.  Coefficient  Atom+Function         Bfn.  Coefficient  Atom+Function  
  ----- ------------  ---------------      ----- ------------  ---------------
     8      4.842112  1 Li px                38     -4.842112  2 Li px         
    22     -3.045161  1 Li d  1              52     -3.045161  2 Li d  1       
    11     -0.811140  1 Li px                41      0.811140  2 Li px         
     9     -0.392562  1 Li py                39      0.392562  2 Li py         
    20     -0.246879  1 Li d -1              50     -0.246879  2 Li d -1       

 Vector   28  Occ=0.000000D+00  E= 3.985735D-01
              MO Center= -5.6D-16, -1.3D-16,  4.4D-12, r^2= 1.2D+01
   Bfn.  Coefficient  Atom+Function         Bfn.  Coefficient  Atom+Function  
  ----- ------------  ---------------      ----- ------------  ---------------
     4     12.438617  1 Li s                 34    -12.438617  2 Li s          
     3      8.362144  1 Li s                 33     -8.362144  2 Li s          
    10      8.168300  1 Li pz                40      8.168300  2 Li pz         
    21      1.962946  1 Li d  0              51     -1.962946  2 Li d  0       
    13      1.484924  1 Li pz                43      1.484924  2 Li pz         

 Vector   29  Occ=0.000000D+00  E= 4.539200D-01
              MO Center=  2.8D-15, -2.6D-15,  6.4D-13, r^2= 6.0D+00
   Bfn.  Coefficient  Atom+Function         Bfn.  Coefficient  Atom+Function  
  ----- ------------  ---------------      ----- ------------  ---------------
     5      0.897542  1 Li px                35      0.897542  2 Li px         
     8     -0.804651  1 Li px                38     -0.804651  2 Li px         
    11      0.316204  1 Li px                41      0.316204  2 Li px         
     6     -0.237092  1 Li py                36     -0.237092  2 Li py         
     9      0.212554  1 Li py                39      0.212554  2 Li py         

 Vector   30  Occ=0.000000D+00  E= 4.539200D-01
              MO Center=  2.6D-15,  1.4D-14,  5.8D-13, r^2= 6.0D+00
   Bfn.  Coefficient  Atom+Function         Bfn.  Coefficient  Atom+Function  
  ----- ------------  ---------------      ----- ------------  ---------------
     6      0.897542  1 Li py                36      0.897542  2 Li py         
     9     -0.804651  1 Li py                39     -0.804651  2 Li py         
    12      0.316204  1 Li py                42      0.316204  2 Li py         
     5      0.237092  1 Li px                35      0.237092  2 Li px         
     8     -0.212554  1 Li px                38     -0.212554  2 Li px         

 Vector   31  Occ=0.000000D+00  E= 4.654787D-01
              MO Center= -8.2D-15, -8.8D-15, -4.0D-12, r^2= 9.0D+00
   Bfn.  Coefficient  Atom+Function         Bfn.  Coefficient  Atom+Function  
  ----- ------------  ---------------      ----- ------------  ---------------
    10      2.369108  1 Li pz                40     -2.369108  2 Li pz         
     3     -1.801917  1 Li s                 33     -1.801917  2 Li s          
    21      1.441598  1 Li d  0              51      1.441598  2 Li d  0       
     4      1.049852  1 Li s                 34      1.049852  2 Li s          
     7     -1.024764  1 Li pz                37      1.024764  2 Li pz         

 Vector   32  Occ=0.000000D+00  E= 4.682445D-01
              MO Center= -3.5D-16, -1.0D-15, -6.0D-13, r^2= 7.3D+00
   Bfn.  Coefficient  Atom+Function         Bfn.  Coefficient  Atom+Function  
  ----- ------------  ---------------      ----- ------------  ---------------
    11      0.547406  1 Li px                41     -0.547406  2 Li px         
    22     -0.509901  1 Li d  1              52     -0.509901  2 Li d  1       
    12     -0.485621  1 Li py                42      0.485621  2 Li py         
     5      0.482968  1 Li px                35     -0.482968  2 Li px         
    20     -0.452350  1 Li d -1              50     -0.452350  2 Li d -1       

 Vector   33  Occ=0.000000D+00  E= 4.682445D-01
              MO Center=  6.5D-16,  7.5D-16, -5.7D-13, r^2= 7.3D+00
   Bfn.  Coefficient  Atom+Function         Bfn.  Coefficient  Atom+Function  
  ----- ------------  ---------------      ----- ------------  ---------------
    12      0.547406  1 Li py                42     -0.547406  2 Li py         
    20      0.509901  1 Li d -1              50      0.509901  2 Li d -1       
    11      0.485621  1 Li px                41     -0.485621  2 Li px         
     6      0.482968  1 Li py                36     -0.482968  2 Li py         
    22     -0.452350  1 Li d  1              52     -0.452350  2 Li d  1       

 Vector   34  Occ=0.000000D+00  E= 6.461738D-01
              MO Center=  4.7D-16,  1.5D-16,  8.5D-14, r^2= 5.7D+00
   Bfn.  Coefficient  Atom+Function         Bfn.  Coefficient  Atom+Function  
  ----- ------------  ---------------      ----- ------------  ---------------
     4      6.592607  1 Li s                 34     -6.592607  2 Li s          
     3      3.785032  1 Li s                 33     -3.785032  2 Li s          
    10      3.481536  1 Li pz                40      3.481536  2 Li pz         
    21      1.552370  1 Li d  0              51     -1.552370  2 Li d  0       
    16     -1.035636  1 Li d  0              46      1.035636  2 Li d  0       


 center of mass
 --------------
 x =   0.00000000 y =   0.00000000 z =   0.00000000

 moments of inertia (a.u.)
 ------------------
          57.284238962195           0.000000000000           0.000000000000
           0.000000000000          57.284238962195           0.000000000000
           0.000000000000           0.000000000000           0.000000000000

  Mulliken analysis of the total density
  --------------------------------------

    Atom       Charge   Shell Charges
 -----------   ------   -------------------------------------------------------
    1 Li   3     3.00   2.00 -0.02  0.49  0.45  0.04  0.05  0.01  0.00  0.00  0.00
    2 Li   3     3.00   2.00 -0.02  0.49  0.45  0.04  0.05  0.01  0.00  0.00  0.00

       Multipole analysis of the density wrt the origin
       ------------------------------------------------

     L   x y z        total         open         nuclear
     -   - - -        -----         ----         -------
     0   0 0 0     -0.000000      0.000000      6.000000

     1   1 0 0     -0.000000      0.000000      0.000000
     1   0 1 0     -0.000000      0.000000      0.000000
     1   0 0 1      0.000000      0.000000      0.000000

     2   2 0 0    -11.920418      0.000000      0.000000
     2   1 1 0      0.000000      0.000000      0.000000
     2   1 0 1      0.000000      0.000000      0.000000
     2   0 2 0    -11.920418      0.000000      0.000000
     2   0 1 1      0.000000      0.000000      0.000000
     2   0 0 2     -3.957903      0.000000     24.494401


 Parallel integral file used       9 records with       0 large values

                   NWChem Extensible Many-Electron Theory Module
                   ---------------------------------------------

              ======================================================
                   This portion of the program was automatically
                  generated by a Tensor Contraction Engine (TCE).
                  The development of this portion of the program
                 and TCE was supported by US Department of Energy,
                Office of Science, Office of Basic Energy Science.
                      TCE is a product of Battelle and PNNL.
              Please cite: S.Hirata, J.Phys.Chem.A 107, 9887 (2003).
              ======================================================

                                    Li2-REMOVE


            General Information
            -------------------
      Number of processors :     1
         Wavefunction type : Restricted Hartree-Fock
          No. of electrons :     6
           Alpha electrons :     3
            Beta electrons :     3
           No. of orbitals :   120
            Alpha orbitals :    60
             Beta orbitals :    60
        Alpha frozen cores :     0
         Beta frozen cores :     0
     Alpha frozen virtuals :    56
      Beta frozen virtuals :    56
         Spin multiplicity : singlet 
    Number of AO functions :    60
       Number of AO shells :    20
        Use of symmetry is : off
      Symmetry adaption is : off
         Schwarz screening : 0.10D-09

          Correlation Information
          -----------------------
          Calculation type : Coupled-cluster singles & doubles                           
   Perturbative correction : none                                                        
            Max iterations :      200
        Residual threshold : 0.10D-05
     T(0) DIIS level shift : 0.00D+00
     L(0) DIIS level shift : 0.00D+00
     T(1) DIIS level shift : 0.00D+00
     L(1) DIIS level shift : 0.00D+00
     T(R) DIIS level shift : 0.00D+00
     T(I) DIIS level shift : 0.00D+00
   CC-T/L Amplitude update :  5-th order DIIS
                I/O scheme : Global Array Library
        L-threshold :  0.10D-05
        EOM-threshold :  0.10D-05
 no EOMCCSD initial starts read in
 TCE RESTART OPTIONS
 READ_INT:   F
 WRITE_INT:  F
 READ_TA:    F
 WRITE_TA:   F
 READ_XA:    F
 WRITE_XA:   F
 READ_IN3:   F
 WRITE_IN3:  F
 SLICE:      F
 D4D5:       F
 quantumc:   F
 qrotation:  F
 qducc:      F
 nacto:                         0
 nrotv:                         0
 nrot:                          0

            Memory Information
            ------------------
          Available GA space size is    1610609136 doubles
          Available MA space size is    1610610012 doubles

 Maximum block size supplied by input
 Maximum block size         5 doubles

 tile_dim =      3

 Block   Spin    Irrep     Size     Offset   Alpha
 -------------------------------------------------
   1    alpha     a      3 doubles       0       1
   2    beta      a      3 doubles       3       1
   3    alpha     a      1 doubles       6       3
   4    beta      a      1 doubles       7       3

 Global array virtual files algorithm will be used

 Parallel file system coherency ......... OK

 Integral file          = ./Li2-REMOVE.aoints.0
 Record size in doubles =    65536    No. of integs per rec  =    43688
 Max. records in memory =       54    Max. records in file   =  1545088
 No. of bits per label  =        8    No. of bits per value  =       64


 #quartets = 2.216D+04 #integrals = 3.711D+05 #direct =  0.0% #cached =100.0%


 Fock matrix recomputed
 1-e file size   =               16
 1-e file name   = ./Li2-REMOVE.f1
 Cpu & wall time / sec            0.2            0.3
 4-electron integrals stored in orbital form

 v2    file size   =              130
 4-index algorithm nr.  13 is used
 imaxsize =       30
 imaxsize ichop =        0
 Cpu & wall time / sec            1.7            1.8
 T1-number-of-tasks                    1

 t1 file size   =                3
 t1 file name   = ./Li2-REMOVE.t1
 t1 file handle =       -998
 T2-number-of-boxes                    2

 t2 file size   =               18
 t2 file name   = ./Li2-REMOVE.t2
 t2 file handle =       -996

 CCSD iterations
 -----------------------------------------------------------------
 Iter          Residuum       Correlation     Cpu    Wall    V2*C2
 -----------------------------------------------------------------
    1   0.0057488931632  -0.0005631205452     0.0     0.0     0.0
    2   0.0021065411266  -0.0007726356661     0.0     0.0     0.0
    3   0.0007873366520  -0.0008509301291     0.0     0.0     0.0
    4   0.0002907755760  -0.0008799635915     0.0     0.0     0.0
    5   0.0001082782116  -0.0008907634983     0.0     0.0     0.0
 MICROCYCLE DIIS UPDATE:                    5                    5
    6   0.0000000052157  -0.0008971373396     0.0     0.0     0.0
 -----------------------------------------------------------------
 Iterations converged
 CCSD correlation energy / hartree =        -0.000897137339577
 CCSD total energy / hartree       =       -14.855200339541623

 Singles contributions

 Doubles contributions
     4a   (alpha)     4a   (beta ) ---     3a   (alpha)     3a   (beta )       -0.0593118854

 Parallel integral file used       9 records with       0 large values


 Task  times  cpu:        2.5s     wall:        2.6s


                                NWChem Input Module
                                -------------------


 Summary of allocated global arrays
-----------------------------------
  No active global arrays



                         GA Statistics for process    0
                         ------------------------------

       create   destroy   get      put      acc     scatter   gather  read&inc
calls:  985      985     5290     2493     2764        0        0     1702     
number of processes/call 1.00e+00 1.00e+00 1.00e+00 0.00e+00 0.00e+00
bytes total:             1.84e+08 6.33e+07 1.52e+06 0.00e+00 0.00e+00 1.36e+04
bytes remote:            0.00e+00 0.00e+00 0.00e+00 0.00e+00 0.00e+00 0.00e+00
Max memory consumed for GA by this process: 58393184 bytes

MA_summarize_allocated_blocks: starting scan ...
MA_summarize_allocated_blocks: scan completed: 0 heap blocks, 0 stack blocks
MA usage statistics:

	allocation statistics:
					      heap	     stack
					      ----	     -----
	current number of blocks	         0	         0
	maximum number of blocks	        17	        33
	current total bytes		         0	         0
	maximum total bytes		  28329720	  39219016
	maximum total K-bytes		     28330	     39220
	maximum total M-bytes		        29	        40


                                     CITATION
                                     --------
                Please cite the following reference when publishing
                           results obtained with NWChem:

                 M. Valiev, E.J. Bylaska, N. Govind, K. Kowalski,
              T.P. Straatsma, H.J.J. van Dam, D. Wang, J. Nieplocha,
                        E. Apra, T.L. Windus, W.A. de Jong
                 "NWChem: a comprehensive and scalable open-source
                  solution for large scale molecular simulations"
                      Comput. Phys. Commun. 181, 1477 (2010)
                           doi:10.1016/j.cpc.2010.04.018

                                      AUTHORS
                                      -------
          E. Apra, E. J. Bylaska, W. A. de Jong, N. Govind, K. Kowalski,
       T. P. Straatsma, M. Valiev, H. J. J. van Dam, D. Wang, T. L. Windus,
        J. Hammond, J. Autschbach, K. Bhaskaran-Nair, J. Brabec, K. Lopata,
    S. A. Fischer, S. Krishnamoorthy, M. Jacquelin, W. Ma, M. Klemm, O. Villa,
      Y. Chen, V. Anisimov, F. Aquino, S. Hirata, M. T. Hackler, V. Konjkov,
            D. Mejia-Rodriguez, T. Risthaus, M. Malagoli, A. Marenich,
   A. Otero-de-la-Roza, J. Mullin, P. Nichols, R. Peverati, J. Pittner, Y. Zhao,
        P.-D. Fan, A. Fonari, M. J. Williamson, R. J. Harrison, J. R. Rehr,
      M. Dupuis, D. Silverstein, D. M. A. Smith, J. Nieplocha, V. Tipparaju,
    M. Krishnan, B. E. Van Kuiken, A. Vazquez-Mayagoitia, L. Jensen, M. Swart,
      Q. Wu, T. Van Voorhis, A. A. Auer, M. Nooijen, L. D. Crosby, E. Brown,
      G. Cisneros, G. I. Fann, H. Fruchtl, J. Garza, K. Hirao, R. A. Kendall,
      J. A. Nichols, K. Tsemekhman, K. Wolinski, J. Anchell, D. E. Bernholdt,
      P. Borowski, T. Clark, D. Clerc, H. Dachsel, M. J. O. Deegan, K. Dyall,
    D. Elwood, E. Glendening, M. Gutowski, A. C. Hess, J. Jaffe, B. G. Johnson,
     J. Ju, R. Kobayashi, R. Kutteh, Z. Lin, R. Littlefield, X. Long, B. Meng,
      T. Nakajima, S. Niu, L. Pollack, M. Rosing, K. Glaesemann, G. Sandrone,
      M. Stave, H. Taylor, G. Thomas, J. H. van Lenthe, A. T. Wong, Z. Zhang.

 Total times  cpu:        2.5s     wall:        2.6s
