 argument  1 = Li2-4_ORBITALS-ccpVTZ-4_0095.nw
  NWChem w/ OpenMP: maximum threads =    1



============================== echo of input deck ==============================
title "Li2-REMOVE"
echo
start Li2-REMOVE

memory total 24 gb

geometry  units angstrom
symmetry c1
Li  0    0    0
Li  0    0    4.0095
end

basis spherical
   * library cc-pvtz
end

scf
thresh 1.0e-10
tol2e 1.0e-10
rhf
singlet
maxiter 200
end

tce
   ccsd
   maxiter 200
   thresh 1.e-6
   2eorb
   2emet 13
   tilesize 5
   freeze virtual 56
end

#set tce:qducc T
#set tce:nactv 7
set tce:printtol 0.001

task tce energy

================================================================================


                                         
                                         


              Northwest Computational Chemistry Package (NWChem) 6.8
              ------------------------------------------------------


                    Environmental Molecular Sciences Laboratory
                       Pacific Northwest National Laboratory
                                Richland, WA 99352

                              Copyright (c) 1994-2018
                       Pacific Northwest National Laboratory
                            Battelle Memorial Institute

             NWChem is an open-source computational chemistry package
                        distributed under the terms of the
                      Educational Community License (ECL) 2.0
             A copy of the license is included with this distribution
                              in the LICENSE.TXT file

                                  ACKNOWLEDGMENT
                                  --------------

            This software and its documentation were developed at the
            EMSL at Pacific Northwest National Laboratory, a multiprogram
            national laboratory, operated for the U.S. Department of Energy
            by Battelle under Contract Number DE-AC05-76RL01830. Support
            for this work was provided by the Department of Energy Office
            of Biological and Environmental Research, Office of Basic
            Energy Sciences, and the Office of Advanced Scientific Computing.


           Job information
           ---------------

    hostname        = WE35263ubuntu
    program         = /home/baum612/code/NWChem/nwchem/bin/LINUX64/nwchem
    date            = Wed Apr 10 15:51:14 2019

    compiled        = Thu_Apr_04_14:53:19_2019
    source          = /home/baum612/code/NWChem/nwchem
    nwchem branch   = Development
    nwchem revision = nwchem_on_git-845-ga8f432451
    ga revision     = 5.6.5
    use scalapack   = F
    input           = Li2-4_ORBITALS-ccpVTZ-4_0095.nw
    prefix          = Li2-REMOVE.
    data base       = ./Li2-REMOVE.db
    status          = startup
    nproc           =        1
    time left       =     -1s



           Memory information
           ------------------

    heap     =  805306364 doubles =   6144.0 Mbytes
    stack    =  805306369 doubles =   6144.0 Mbytes
    global   = 1610612736 doubles =  12288.0 Mbytes (distinct from heap & stack)
    total    = 3221225469 doubles =  24576.0 Mbytes
    verify   = yes
    hardfail = no 


           Directory information
           ---------------------

  0 permanent = .
  0 scratch   = .




                                NWChem Input Module
                                -------------------


                                    Li2-REMOVE
                                    ----------

 Scaling coordinates for geometry "geometry" by  1.889725989
 (inverse scale =  0.529177249)

 Turning off AUTOSYM since
 SYMMETRY directive was detected!


          ------
          auto-z
          ------
     1 autoz failed with cvr_scaling = 1.2 changing to 1.3
     2 autoz failed with cvr_scaling = 1.3 changing to 1.4
     3 autoz failed with cvr_scaling = 1.4 changing to 1.5
     4 autoz failed with cvr_scaling = 1.5 changing to 1.6
  no constraints, skipping    0.0000000000000000     
  no constraints, skipping    0.0000000000000000     


                             Geometry "geometry" -> ""
                             -------------------------

 Output coordinates in angstroms (scale by  1.889725989 to convert to a.u.)

  No.       Tag          Charge          X              Y              Z
 ---- ---------------- ---------- -------------- -------------- --------------
    1 Li                   3.0000     0.00000000     0.00000000    -2.00475000
    2 Li                   3.0000     0.00000000     0.00000000     2.00475000

      Atomic Mass 
      ----------- 

      Li                 7.016000


 Effective nuclear repulsion energy (a.u.)       1.1878277194

            Nuclear Dipole moment (a.u.) 
            ----------------------------
        X                 Y               Z
 ---------------- ---------------- ----------------
     0.0000000000     0.0000000000     0.0000000000



                                Z-matrix (autoz)
                                -------- 

 Units are Angstrom for bonds and degrees for angles

      Type          Name      I     J     K     L     M      Value
      ----------- --------  ----- ----- ----- ----- ----- ----------
    1 Stretch                  1     2                       4.00950


            XYZ format geometry
            -------------------
     2
 geometry
 Li                    0.00000000     0.00000000    -2.00475000
 Li                    0.00000000     0.00000000     2.00475000



 Summary of "ao basis" -> "" (spherical)
 ------------------------------------------------------------------------------
       Tag                 Description            Shells   Functions and Types
 ---------------- ------------------------------  ------  ---------------------
 *                          cc-pvtz                   on all atoms 


                      Basis "ao basis" -> "ao basis" (spherical)
                      -----
  Li (Lithium)
  ------------
            Exponent  Coefficients 
       -------------- ---------------------------------------------------------
  1 S  5.98800000E+03  0.000133
  1 S  8.98900000E+02  0.001025
  1 S  2.05900000E+02  0.005272
  1 S  5.92400000E+01  0.020929
  1 S  1.98700000E+01  0.066340
  1 S  7.40600000E+00  0.165775
  1 S  2.93000000E+00  0.315038
  1 S  1.18900000E+00  0.393523
  1 S  4.79800000E-01  0.190870

  2 S  5.98800000E+03 -0.000021
  2 S  8.98900000E+02 -0.000161
  2 S  2.05900000E+02 -0.000820
  2 S  5.92400000E+01 -0.003326
  2 S  1.98700000E+01 -0.010519
  2 S  7.40600000E+00 -0.028097
  2 S  2.93000000E+00 -0.055936
  2 S  1.18900000E+00 -0.099237
  2 S  4.79800000E-01 -0.112189

  3 S  7.50900000E-02  1.000000

  4 S  2.83200000E-02  1.000000

  5 P  3.26600000E+00  0.008630
  5 P  6.51100000E-01  0.047538
  5 P  1.69600000E-01  0.209772

  6 P  5.57800000E-02  1.000000

  7 P  2.05000000E-02  1.000000

  8 D  1.87400000E-01  1.000000

  9 D  8.01000000E-02  1.000000

 10 F  1.82900000E-01  1.000000



 Summary of "ao basis" -> "ao basis" (spherical)
 ------------------------------------------------------------------------------
       Tag                 Description            Shells   Functions and Types
 ---------------- ------------------------------  ------  ---------------------
 Li                         cc-pvtz                 10       30   4s3p2d1f


                                 NWChem SCF Module
                                 -----------------


                                    Li2-REMOVE



  ao basis        = "ao basis"
  functions       =    60
  atoms           =     2
  closed shells   =     3
  open shells     =     0
  charge          =   0.00
  wavefunction    = RHF 
  input vectors   = atomic
  output vectors  = ./Li2-REMOVE.movecs
  use symmetry    = F
  symmetry adapt  = F


 Summary of "ao basis" -> "ao basis" (spherical)
 ------------------------------------------------------------------------------
       Tag                 Description            Shells   Functions and Types
 ---------------- ------------------------------  ------  ---------------------
 Li                         cc-pvtz                 10       30   4s3p2d1f



 Forming initial guess at       0.1s


      Superposition of Atomic Density Guess
      -------------------------------------

 Sum of atomic energies:         -14.86535760

      Non-variational initial energy
      ------------------------------

 Total energy =     -14.762097
 1-e energy   =     -21.800217
 2-e energy   =       5.850292
 HOMO         =      -0.122331
 LUMO         =      -0.046377


 Starting SCF solution at       0.1s



 ----------------------------------------------
         Quadratically convergent ROHF

 Convergence threshold     :          1.000E-10
 Maximum no. of iterations :          200
 Final Fock-matrix accuracy:          1.000E-10
 ----------------------------------------------


 Integral file          = ./Li2-REMOVE.aoints.0
 Record size in doubles =    65536    No. of integs per rec  =    43688
 Max. records in memory =       54    Max. records in file   =  1545088
 No. of bits per label  =        8    No. of bits per value  =       64


 #quartets = 2.214D+04 #integrals = 3.711D+05 #direct =  0.0% #cached =100.0%


              iter       energy          gnorm     gmax       time
             ----- ------------------- --------- --------- --------
                 1      -14.8504477454  4.72D-02  2.65D-02      0.4
                 2      -14.8516975477  1.80D-03  1.02D-03      0.4
                 3      -14.8516997094  2.67D-06  1.97D-06      0.4
                 4      -14.8516997094  9.50D-12  7.12D-12      0.5


       Final RHF  results 
       ------------------ 

         Total SCF energy =    -14.851699709421
      One-electron energy =    -21.823799437487
      Two-electron energy =      5.784272008650
 Nuclear repulsion energy =      1.187827719416

        Time for solution =      0.3s


             Final eigenvalues
             -----------------

              1      
    1   -2.4846
    2   -2.4846
    3   -0.1584
    4   -0.0108
    5    0.0274
    6    0.0274
    7    0.0325
    8    0.0490
    9    0.0490
   10    0.0583
   11    0.1124
   12    0.1232
   13    0.1232

                       ROHF Final Molecular Orbital Analysis
                       -------------------------------------

 Vector    2  Occ=2.000000D+00  E=-2.484616D+00
              MO Center=  9.6D-18, -3.3D-17, -3.1D-06, r^2= 4.1D+00
   Bfn.  Coefficient  Atom+Function         Bfn.  Coefficient  Atom+Function  
  ----- ------------  ---------------      ----- ------------  ---------------
     1      0.707152  1 Li s                 31     -0.707151  2 Li s          

 Vector    3  Occ=2.000000D+00  E=-1.583935D-01
              MO Center=  1.5D-15,  1.4D-15, -3.6D-11, r^2= 7.4D+00
   Bfn.  Coefficient  Atom+Function         Bfn.  Coefficient  Atom+Function  
  ----- ------------  ---------------      ----- ------------  ---------------
     4      0.386082  1 Li s                 34      0.386082  2 Li s          
     3      0.242552  1 Li s                 33      0.242552  2 Li s          
     2      0.155284  1 Li s                 32      0.155284  2 Li s          

 Vector    4  Occ=0.000000D+00  E=-1.075979D-02
              MO Center= -8.3D-16,  2.8D-16,  1.6D-10, r^2= 1.9D+01
   Bfn.  Coefficient  Atom+Function         Bfn.  Coefficient  Atom+Function  
  ----- ------------  ---------------      ----- ------------  ---------------
    13      0.415103  1 Li pz                43      0.415103  2 Li pz         
     4     -0.229199  1 Li s                 34      0.229199  2 Li s          
     3     -0.196008  1 Li s                 33      0.196008  2 Li s          

 Vector    5  Occ=0.000000D+00  E= 2.742368D-02
              MO Center= -9.2D-16,  1.2D-15,  2.0D-10, r^2= 1.9D+01
   Bfn.  Coefficient  Atom+Function         Bfn.  Coefficient  Atom+Function  
  ----- ------------  ---------------      ----- ------------  ---------------
    12      0.548740  1 Li py                42      0.548740  2 Li py         

 Vector    6  Occ=0.000000D+00  E= 2.742368D-02
              MO Center=  3.7D-15,  2.2D-16,  2.0D-10, r^2= 1.9D+01
   Bfn.  Coefficient  Atom+Function         Bfn.  Coefficient  Atom+Function  
  ----- ------------  ---------------      ----- ------------  ---------------
    11      0.548740  1 Li px                41      0.548740  2 Li px         

 Vector    7  Occ=0.000000D+00  E= 3.252889D-02
              MO Center= -6.0D-15, -1.5D-15, -6.3D-11, r^2= 2.6D+01
   Bfn.  Coefficient  Atom+Function         Bfn.  Coefficient  Atom+Function  
  ----- ------------  ---------------      ----- ------------  ---------------
    13      0.712266  1 Li pz                43     -0.712266  2 Li pz         
     4     -0.492751  1 Li s                 34     -0.492751  2 Li s          

 Vector    8  Occ=0.000000D+00  E= 4.897827D-02
              MO Center=  4.2D-16,  2.0D-17, -2.0D-10, r^2= 2.7D+01
   Bfn.  Coefficient  Atom+Function         Bfn.  Coefficient  Atom+Function  
  ----- ------------  ---------------      ----- ------------  ---------------
    11      0.993695  1 Li px                41     -0.993695  2 Li px         
    12     -0.517722  1 Li py                42      0.517722  2 Li py         

 Vector    9  Occ=0.000000D+00  E= 4.897827D-02
              MO Center= -7.2D-15, -1.3D-14, -2.0D-10, r^2= 2.7D+01
   Bfn.  Coefficient  Atom+Function         Bfn.  Coefficient  Atom+Function  
  ----- ------------  ---------------      ----- ------------  ---------------
    12      0.993695  1 Li py                42     -0.993695  2 Li py         
    11      0.517722  1 Li px                41     -0.517722  2 Li px         

 Vector   10  Occ=0.000000D+00  E= 5.834706D-02
              MO Center=  6.5D-15,  1.3D-14, -1.5D-10, r^2= 3.7D+01
   Bfn.  Coefficient  Atom+Function         Bfn.  Coefficient  Atom+Function  
  ----- ------------  ---------------      ----- ------------  ---------------
     4      2.310010  1 Li s                 34     -2.310010  2 Li s          
    13      1.791650  1 Li pz                43      1.791650  2 Li pz         

 Vector   11  Occ=0.000000D+00  E= 1.123674D-01
              MO Center= -1.7D-17, -5.3D-16, -1.0D-10, r^2= 2.2D+01
   Bfn.  Coefficient  Atom+Function         Bfn.  Coefficient  Atom+Function  
  ----- ------------  ---------------      ----- ------------  ---------------
    13      0.999810  1 Li pz                43     -0.999810  2 Li pz         
    10     -0.895170  1 Li pz                40      0.895170  2 Li pz         

 Vector   12  Occ=0.000000D+00  E= 1.231502D-01
              MO Center=  5.7D-16, -1.1D-15,  4.1D-10, r^2= 1.7D+01
   Bfn.  Coefficient  Atom+Function         Bfn.  Coefficient  Atom+Function  
  ----- ------------  ---------------      ----- ------------  ---------------
     8      0.821230  1 Li px                38      0.821230  2 Li px         
    11     -0.604742  1 Li px                41     -0.604742  2 Li px         
     9     -0.472292  1 Li py                39     -0.472292  2 Li py         
    12      0.347789  1 Li py                42      0.347789  2 Li py         

 Vector   13  Occ=0.000000D+00  E= 1.231502D-01
              MO Center=  2.4D-15,  9.6D-16,  4.1D-10, r^2= 1.7D+01
   Bfn.  Coefficient  Atom+Function         Bfn.  Coefficient  Atom+Function  
  ----- ------------  ---------------      ----- ------------  ---------------
     9      0.821230  1 Li py                39      0.821230  2 Li py         
    12     -0.604742  1 Li py                42     -0.604742  2 Li py         
     8      0.472292  1 Li px                38      0.472292  2 Li px         
    11     -0.347789  1 Li px                41     -0.347789  2 Li px         

 Vector   14  Occ=0.000000D+00  E= 1.407775D-01
              MO Center= -1.1D-15,  5.0D-16, -4.0D-10, r^2= 1.8D+01
   Bfn.  Coefficient  Atom+Function         Bfn.  Coefficient  Atom+Function  
  ----- ------------  ---------------      ----- ------------  ---------------
    12     -0.951296  1 Li py                42      0.951296  2 Li py         
     9      0.913192  1 Li py                39     -0.913192  2 Li py         
    11     -0.445047  1 Li px                41      0.445047  2 Li px         
     8      0.427221  1 Li px                38     -0.427221  2 Li px         

 Vector   15  Occ=0.000000D+00  E= 1.407775D-01
              MO Center= -1.6D-16, -1.2D-15, -4.0D-10, r^2= 1.8D+01
   Bfn.  Coefficient  Atom+Function         Bfn.  Coefficient  Atom+Function  
  ----- ------------  ---------------      ----- ------------  ---------------
    11     -0.951296  1 Li px                41      0.951296  2 Li px         
     8      0.913192  1 Li px                38     -0.913192  2 Li px         
    12      0.445047  1 Li py                42     -0.445047  2 Li py         
     9     -0.427221  1 Li py                39      0.427221  2 Li py         

 Vector   16  Occ=0.000000D+00  E= 1.487119D-01
              MO Center=  1.0D-15, -3.6D-17,  3.3D-09, r^2= 1.4D+01
   Bfn.  Coefficient  Atom+Function         Bfn.  Coefficient  Atom+Function  
  ----- ------------  ---------------      ----- ------------  ---------------
     3      1.363005  1 Li s                 33      1.363005  2 Li s          
     4     -1.064508  1 Li s                 34     -1.064508  2 Li s          
     2      0.336199  1 Li s                 32      0.336199  2 Li s          
    21      0.152333  1 Li d  0              51      0.152333  2 Li d  0       

 Vector   17  Occ=0.000000D+00  E= 1.603359D-01
              MO Center= -2.4D-16,  1.4D-15, -2.2D-09, r^2= 1.4D+01
   Bfn.  Coefficient  Atom+Function         Bfn.  Coefficient  Atom+Function  
  ----- ------------  ---------------      ----- ------------  ---------------
     4      1.393436  1 Li s                 34     -1.393436  2 Li s          
    10      1.086197  1 Li pz                40      1.086197  2 Li pz         
     3     -0.560442  1 Li s                 33      0.560442  2 Li s          

 Vector   18  Occ=0.000000D+00  E= 2.014569D-01
              MO Center= -3.0D-16, -4.6D-16, -6.6D-10, r^2= 1.8D+01
   Bfn.  Coefficient  Atom+Function         Bfn.  Coefficient  Atom+Function  
  ----- ------------  ---------------      ----- ------------  ---------------
     4      4.155809  1 Li s                 34     -4.155809  2 Li s          
     3     -1.988810  1 Li s                 33      1.988810  2 Li s          
    13      1.518564  1 Li pz                43      1.518564  2 Li pz         
    21      0.581861  1 Li d  0              51     -0.581861  2 Li d  0       
    10      0.381854  1 Li pz                40      0.381854  2 Li pz         

 Vector   19  Occ=0.000000D+00  E= 2.185717D-01
              MO Center=  2.1D-16,  6.8D-17,  2.2D-10, r^2= 1.1D+01
   Bfn.  Coefficient  Atom+Function         Bfn.  Coefficient  Atom+Function  
  ----- ------------  ---------------      ----- ------------  ---------------
    23      0.671635  1 Li d  2              53      0.671635  2 Li d  2       
    19      0.388806  1 Li d -2              49      0.388806  2 Li d -2       

 Vector   20  Occ=0.000000D+00  E= 2.185717D-01
              MO Center= -2.3D-15, -2.3D-15,  2.2D-10, r^2= 1.1D+01
   Bfn.  Coefficient  Atom+Function         Bfn.  Coefficient  Atom+Function  
  ----- ------------  ---------------      ----- ------------  ---------------
    19      0.671635  1 Li d -2              49      0.671635  2 Li d -2       
    23     -0.388806  1 Li d  2              53     -0.388806  2 Li d  2       

 Vector   21  Occ=0.000000D+00  E= 2.206856D-01
              MO Center= -7.1D-18, -2.7D-16,  4.3D-11, r^2= 1.1D+01
   Bfn.  Coefficient  Atom+Function         Bfn.  Coefficient  Atom+Function  
  ----- ------------  ---------------      ----- ------------  ---------------
    20      0.668248  1 Li d -1              50     -0.668248  2 Li d -1       
    22     -0.211969  1 Li d  1              52      0.211969  2 Li d  1       
     9     -0.158884  1 Li py                39     -0.158884  2 Li py         

 Vector   22  Occ=0.000000D+00  E= 2.206856D-01
              MO Center=  2.6D-16, -2.0D-16,  4.3D-11, r^2= 1.1D+01
   Bfn.  Coefficient  Atom+Function         Bfn.  Coefficient  Atom+Function  
  ----- ------------  ---------------      ----- ------------  ---------------
    22      0.668248  1 Li d  1              52     -0.668248  2 Li d  1       
    20      0.211969  1 Li d -1              50     -0.211969  2 Li d -1       
     8      0.158884  1 Li px                38      0.158884  2 Li px         

 Vector   23  Occ=0.000000D+00  E= 2.514460D-01
              MO Center=  8.7D-16, -1.7D-15, -2.1D-10, r^2= 1.2D+01
   Bfn.  Coefficient  Atom+Function         Bfn.  Coefficient  Atom+Function  
  ----- ------------  ---------------      ----- ------------  ---------------
    23      0.825039  1 Li d  2              53     -0.825039  2 Li d  2       
    19     -0.247421  1 Li d -2              49      0.247421  2 Li d -2       
    18     -0.154982  1 Li d  2              48      0.154982  2 Li d  2       

 Vector   24  Occ=0.000000D+00  E= 2.514460D-01
              MO Center=  2.0D-15,  2.9D-15, -2.1D-10, r^2= 1.2D+01
   Bfn.  Coefficient  Atom+Function         Bfn.  Coefficient  Atom+Function  
  ----- ------------  ---------------      ----- ------------  ---------------
    19      0.825039  1 Li d -2              49     -0.825039  2 Li d -2       
    23      0.247421  1 Li d  2              53     -0.247421  2 Li d  2       
    14     -0.154982  1 Li d -2              44      0.154982  2 Li d -2       

 Vector   25  Occ=0.000000D+00  E= 2.860484D-01
              MO Center=  1.4D-16, -1.3D-16,  6.8D-11, r^2= 1.4D+01
   Bfn.  Coefficient  Atom+Function         Bfn.  Coefficient  Atom+Function  
  ----- ------------  ---------------      ----- ------------  ---------------
    21      0.832175  1 Li d  0              51      0.832175  2 Li d  0       
     3     -0.652984  1 Li s                 33     -0.652984  2 Li s          
    13      0.486548  1 Li pz                43     -0.486548  2 Li pz         
    10     -0.460079  1 Li pz                40      0.460079  2 Li pz         
     4      0.280013  1 Li s                 34      0.280013  2 Li s          

 Vector   26  Occ=0.000000D+00  E= 3.111108D-01
              MO Center= -5.8D-16,  1.5D-15, -5.3D-11, r^2= 1.3D+01
   Bfn.  Coefficient  Atom+Function         Bfn.  Coefficient  Atom+Function  
  ----- ------------  ---------------      ----- ------------  ---------------
    20      1.087991  1 Li d -1              50      1.087991  2 Li d -1       
    12      0.268754  1 Li py                42     -0.268754  2 Li py         
    22     -0.230312  1 Li d  1              52     -0.230312  2 Li d  1       
    15     -0.195384  1 Li d -1              45     -0.195384  2 Li d -1       
     9      0.158980  1 Li py                39     -0.158980  2 Li py         

 Vector   27  Occ=0.000000D+00  E= 3.111108D-01
              MO Center=  9.1D-16, -1.5D-15, -5.3D-11, r^2= 1.3D+01
   Bfn.  Coefficient  Atom+Function         Bfn.  Coefficient  Atom+Function  
  ----- ------------  ---------------      ----- ------------  ---------------
    22      1.087991  1 Li d  1              52      1.087991  2 Li d  1       
    11     -0.268754  1 Li px                41      0.268754  2 Li px         
    20      0.230312  1 Li d -1              50      0.230312  2 Li d -1       
    17     -0.195384  1 Li d  1              47     -0.195384  2 Li d  1       
     8     -0.158980  1 Li px                38      0.158980  2 Li px         

 Vector   28  Occ=0.000000D+00  E= 3.720775D-01
              MO Center= -2.5D-16,  1.1D-16, -3.3D-10, r^2= 1.2D+01
   Bfn.  Coefficient  Atom+Function         Bfn.  Coefficient  Atom+Function  
  ----- ------------  ---------------      ----- ------------  ---------------
     4      2.585792  1 Li s                 34     -2.585792  2 Li s          
    21      1.521141  1 Li d  0              51     -1.521141  2 Li d  0       
    10      1.312185  1 Li pz                40      1.312185  2 Li pz         
    13      0.804711  1 Li pz                43      0.804711  2 Li pz         
     7      0.348351  1 Li pz                37      0.348351  2 Li pz         

 Vector   29  Occ=0.000000D+00  E= 4.567936D-01
              MO Center= -8.6D-16, -6.3D-16,  5.9D-10, r^2= 9.2D+00
   Bfn.  Coefficient  Atom+Function         Bfn.  Coefficient  Atom+Function  
  ----- ------------  ---------------      ----- ------------  ---------------
     5      0.973531  1 Li px                 8     -0.971913  1 Li px         
    35      0.973531  2 Li px                38     -0.971913  2 Li px         
    11      0.374503  1 Li px                41      0.374503  2 Li px         

 Vector   30  Occ=0.000000D+00  E= 4.567936D-01
              MO Center= -1.3D-15,  8.0D-16,  5.9D-10, r^2= 9.2D+00
   Bfn.  Coefficient  Atom+Function         Bfn.  Coefficient  Atom+Function  
  ----- ------------  ---------------      ----- ------------  ---------------
     6      0.973531  1 Li py                 9     -0.971913  1 Li py         
    36      0.973531  2 Li py                39     -0.971913  2 Li py         
    12      0.374503  1 Li py                42      0.374503  2 Li py         

 Vector   31  Occ=0.000000D+00  E= 4.755780D-01
              MO Center= -7.1D-16,  9.6D-16, -5.9D-10, r^2= 9.4D+00
   Bfn.  Coefficient  Atom+Function         Bfn.  Coefficient  Atom+Function  
  ----- ------------  ---------------      ----- ------------  ---------------
     8      1.196013  1 Li px                38     -1.196013  2 Li px         
     5     -1.001890  1 Li px                35      1.001890  2 Li px         
    11     -0.585184  1 Li px                41      0.585184  2 Li px         
    22     -0.159766  1 Li d  1              52     -0.159766  2 Li d  1       

 Vector   32  Occ=0.000000D+00  E= 4.755780D-01
              MO Center=  6.9D-16,  6.6D-16, -5.9D-10, r^2= 9.4D+00
   Bfn.  Coefficient  Atom+Function         Bfn.  Coefficient  Atom+Function  
  ----- ------------  ---------------      ----- ------------  ---------------
     9      1.196013  1 Li py                39     -1.196013  2 Li py         
     6     -1.001890  1 Li py                36      1.001890  2 Li py         
    12     -0.585184  1 Li py                42      0.585184  2 Li py         
    20      0.159766  1 Li d -1              50      0.159766  2 Li d -1       

 Vector   33  Occ=0.000000D+00  E= 4.963420D-01
              MO Center= -2.6D-16,  6.2D-16,  1.9D-09, r^2= 9.0D+00
   Bfn.  Coefficient  Atom+Function         Bfn.  Coefficient  Atom+Function  
  ----- ------------  ---------------      ----- ------------  ---------------
     7      0.981861  1 Li pz                37     -0.981861  2 Li pz         
    10     -0.937122  1 Li pz                40      0.937122  2 Li pz         
    13      0.436395  1 Li pz                43     -0.436395  2 Li pz         
     3      0.221811  1 Li s                 33      0.221811  2 Li s          
     4     -0.190409  1 Li s                 34     -0.190409  2 Li s          

 Vector   34  Occ=0.000000D+00  E= 5.046027D-01
              MO Center=  6.5D-16, -4.3D-16, -1.9D-09, r^2= 1.2D+01
   Bfn.  Coefficient  Atom+Function         Bfn.  Coefficient  Atom+Function  
  ----- ------------  ---------------      ----- ------------  ---------------
    10      2.924587  1 Li pz                40      2.924587  2 Li pz         
     4      2.562210  1 Li s                 34     -2.562210  2 Li s          
    21      1.295278  1 Li d  0              51     -1.295278  2 Li d  0       
     7     -1.032914  1 Li pz                37     -1.032914  2 Li pz         
    13      0.206865  1 Li pz                43      0.206865  2 Li pz         


 center of mass
 --------------
 x =   0.00000000 y =   0.00000000 z =   0.00000000

 moments of inertia (a.u.)
 ------------------
         201.389902601465           0.000000000000           0.000000000000
           0.000000000000         201.389902601465           0.000000000000
           0.000000000000           0.000000000000           0.000000000000

  Mulliken analysis of the total density
  --------------------------------------

    Atom       Charge   Shell Charges
 -----------   ------   -------------------------------------------------------
    1 Li   3     3.00   2.00 -0.02  0.32  0.63  0.01  0.03  0.02  0.00  0.00  0.00
    2 Li   3     3.00   2.00 -0.02  0.32  0.63  0.01  0.03  0.02  0.00  0.00  0.00

       Multipole analysis of the density wrt the origin
       ------------------------------------------------

     L   x y z        total         open         nuclear
     -   - - -        -----         ----         -------
     0   0 0 0     -0.000000      0.000000      6.000000

     1   1 0 0     -0.000000      0.000000      0.000000
     1   0 1 0     -0.000000      0.000000      0.000000
     1   0 0 1      0.000000      0.000000      0.000000

     2   2 0 0    -13.962604      0.000000      0.000000
     2   1 1 0     -0.000000      0.000000      0.000000
     2   1 0 1      0.000000      0.000000      0.000000
     2   0 2 0    -13.962604      0.000000      0.000000
     2   0 1 1      0.000000      0.000000      0.000000
     2   0 0 2      1.663384      0.000000     86.113128


 Parallel integral file used       9 records with       0 large values

                   NWChem Extensible Many-Electron Theory Module
                   ---------------------------------------------

              ======================================================
                   This portion of the program was automatically
                  generated by a Tensor Contraction Engine (TCE).
                  The development of this portion of the program
                 and TCE was supported by US Department of Energy,
                Office of Science, Office of Basic Energy Science.
                      TCE is a product of Battelle and PNNL.
              Please cite: S.Hirata, J.Phys.Chem.A 107, 9887 (2003).
              ======================================================

                                    Li2-REMOVE


            General Information
            -------------------
      Number of processors :     1
         Wavefunction type : Restricted Hartree-Fock
          No. of electrons :     6
           Alpha electrons :     3
            Beta electrons :     3
           No. of orbitals :   120
            Alpha orbitals :    60
             Beta orbitals :    60
        Alpha frozen cores :     0
         Beta frozen cores :     0
     Alpha frozen virtuals :    56
      Beta frozen virtuals :    56
         Spin multiplicity : singlet 
    Number of AO functions :    60
       Number of AO shells :    20
        Use of symmetry is : off
      Symmetry adaption is : off
         Schwarz screening : 0.10D-09

          Correlation Information
          -----------------------
          Calculation type : Coupled-cluster singles & doubles                           
   Perturbative correction : none                                                        
            Max iterations :      200
        Residual threshold : 0.10D-05
     T(0) DIIS level shift : 0.00D+00
     L(0) DIIS level shift : 0.00D+00
     T(1) DIIS level shift : 0.00D+00
     L(1) DIIS level shift : 0.00D+00
     T(R) DIIS level shift : 0.00D+00
     T(I) DIIS level shift : 0.00D+00
   CC-T/L Amplitude update :  5-th order DIIS
                I/O scheme : Global Array Library
        L-threshold :  0.10D-05
        EOM-threshold :  0.10D-05
 no EOMCCSD initial starts read in
 TCE RESTART OPTIONS
 READ_INT:   F
 WRITE_INT:  F
 READ_TA:    F
 WRITE_TA:   F
 READ_XA:    F
 WRITE_XA:   F
 READ_IN3:   F
 WRITE_IN3:  F
 SLICE:      F
 D4D5:       F
 quantumc:   F
 qrotation:  F
 qducc:      F
 nacto:                         0
 nrotv:                         0
 nrot:                          0

            Memory Information
            ------------------
          Available GA space size is    1610609136 doubles
          Available MA space size is    1610610004 doubles

 Maximum block size supplied by input
 Maximum block size         5 doubles

 tile_dim =      3

 Block   Spin    Irrep     Size     Offset   Alpha
 -------------------------------------------------
   1    alpha     a      3 doubles       0       1
   2    beta      a      3 doubles       3       1
   3    alpha     a      1 doubles       6       3
   4    beta      a      1 doubles       7       3

 Global array virtual files algorithm will be used

 Parallel file system coherency ......... OK

 Integral file          = ./Li2-REMOVE.aoints.0
 Record size in doubles =    65536    No. of integs per rec  =    43688
 Max. records in memory =       54    Max. records in file   =  1545088
 No. of bits per label  =        8    No. of bits per value  =       64


 #quartets = 2.214D+04 #integrals = 3.711D+05 #direct =  0.0% #cached =100.0%


 Fock matrix recomputed
 1-e file size   =               16
 1-e file name   = ./Li2-REMOVE.f1
 Cpu & wall time / sec            0.2            0.2
 4-electron integrals stored in orbital form

 v2    file size   =              130
 4-index algorithm nr.  13 is used
 imaxsize =       30
 imaxsize ichop =        0
 Cpu & wall time / sec            1.7            1.8
 T1-number-of-tasks                    1

 t1 file size   =                3
 t1 file name   = ./Li2-REMOVE.t1
 t1 file handle =       -998
 T2-number-of-boxes                    2

 t2 file size   =               18
 t2 file name   = ./Li2-REMOVE.t2
 t2 file handle =       -996

 CCSD iterations
 -----------------------------------------------------------------
 Iter          Residuum       Correlation     Cpu    Wall    V2*C2
 -----------------------------------------------------------------
    1   0.0181168184697  -0.0033447208646     0.0     0.0     0.0
    2   0.0100192255001  -0.0052582142492     0.0     0.0     0.0
    3   0.0054758268587  -0.0063236387095     0.0     0.0     0.0
    4   0.0029575245417  -0.0069050717358     0.0     0.0     0.0
    5   0.0015897515694  -0.0072193680916     0.0     0.0     0.0
 MICROCYCLE DIIS UPDATE:                    5                    5
    6   0.0000039669960  -0.0075835651018     0.0     0.0     0.0
    7   0.0000021199582  -0.0075831432419     0.0     0.0     0.0
    8   0.0000011311307  -0.0075829181362     0.0     0.0     0.0
    9   0.0000006040230  -0.0075827979320     0.0     0.0     0.0
 -----------------------------------------------------------------
 Iterations converged
 CCSD correlation energy / hartree =        -0.007582797932040
 CCSD total energy / hartree       =       -14.859282507352598

 Singles contributions

 Doubles contributions
     4a   (alpha)     4a   (beta ) ---     3a   (alpha)     3a   (beta )       -0.2413918250

 Parallel integral file used       9 records with       0 large values


 Task  times  cpu:        2.5s     wall:        2.6s


                                NWChem Input Module
                                -------------------


 Summary of allocated global arrays
-----------------------------------
  No active global arrays



                         GA Statistics for process    0
                         ------------------------------

       create   destroy   get      put      acc     scatter   gather  read&inc
calls: 1282     1282     6121     2761     3217        0        0     2461     
number of processes/call 1.00e+00 1.00e+00 1.00e+00 0.00e+00 0.00e+00
bytes total:             1.84e+08 6.33e+07 1.60e+06 0.00e+00 0.00e+00 1.97e+04
bytes remote:            0.00e+00 0.00e+00 0.00e+00 0.00e+00 0.00e+00 0.00e+00
Max memory consumed for GA by this process: 58393184 bytes

MA_summarize_allocated_blocks: starting scan ...
MA_summarize_allocated_blocks: scan completed: 0 heap blocks, 0 stack blocks
MA usage statistics:

	allocation statistics:
					      heap	     stack
					      ----	     -----
	current number of blocks	         0	         0
	maximum number of blocks	        17	        33
	current total bytes		         0	         0
	maximum total bytes		  28329752	  39219048
	maximum total K-bytes		     28330	     39220
	maximum total M-bytes		        29	        40


                                     CITATION
                                     --------
                Please cite the following reference when publishing
                           results obtained with NWChem:

                 M. Valiev, E.J. Bylaska, N. Govind, K. Kowalski,
              T.P. Straatsma, H.J.J. van Dam, D. Wang, J. Nieplocha,
                        E. Apra, T.L. Windus, W.A. de Jong
                 "NWChem: a comprehensive and scalable open-source
                  solution for large scale molecular simulations"
                      Comput. Phys. Commun. 181, 1477 (2010)
                           doi:10.1016/j.cpc.2010.04.018

                                      AUTHORS
                                      -------
          E. Apra, E. J. Bylaska, W. A. de Jong, N. Govind, K. Kowalski,
       T. P. Straatsma, M. Valiev, H. J. J. van Dam, D. Wang, T. L. Windus,
        J. Hammond, J. Autschbach, K. Bhaskaran-Nair, J. Brabec, K. Lopata,
    S. A. Fischer, S. Krishnamoorthy, M. Jacquelin, W. Ma, M. Klemm, O. Villa,
      Y. Chen, V. Anisimov, F. Aquino, S. Hirata, M. T. Hackler, V. Konjkov,
            D. Mejia-Rodriguez, T. Risthaus, M. Malagoli, A. Marenich,
   A. Otero-de-la-Roza, J. Mullin, P. Nichols, R. Peverati, J. Pittner, Y. Zhao,
        P.-D. Fan, A. Fonari, M. J. Williamson, R. J. Harrison, J. R. Rehr,
      M. Dupuis, D. Silverstein, D. M. A. Smith, J. Nieplocha, V. Tipparaju,
    M. Krishnan, B. E. Van Kuiken, A. Vazquez-Mayagoitia, L. Jensen, M. Swart,
      Q. Wu, T. Van Voorhis, A. A. Auer, M. Nooijen, L. D. Crosby, E. Brown,
      G. Cisneros, G. I. Fann, H. Fruchtl, J. Garza, K. Hirao, R. A. Kendall,
      J. A. Nichols, K. Tsemekhman, K. Wolinski, J. Anchell, D. E. Bernholdt,
      P. Borowski, T. Clark, D. Clerc, H. Dachsel, M. J. O. Deegan, K. Dyall,
    D. Elwood, E. Glendening, M. Gutowski, A. C. Hess, J. Jaffe, B. G. Johnson,
     J. Ju, R. Kobayashi, R. Kutteh, Z. Lin, R. Littlefield, X. Long, B. Meng,
      T. Nakajima, S. Niu, L. Pollack, M. Rosing, K. Glaesemann, G. Sandrone,
      M. Stave, H. Taylor, G. Thomas, J. H. van Lenthe, A. T. Wong, Z. Zhang.

 Total times  cpu:        2.5s     wall:        2.6s
